<?xml version="1.0"?>
<VTKFile type="UnstructuredGrid"  version="0.1"  >
<UnstructuredGrid>
<Piece  NumberOfPoints="4961" NumberOfCells="9546">
<Points>
<DataArray  type="Float64"  NumberOfComponents="3"  format="ascii">0 1.5 0  -0 0.09117947244826481 0  0.0220162612375116 0.1293127555043441 0  0.05279126660105127 0.1634918616050268 0  0.09000000000000007 0.1905255888325765 0  0.1320162612375116 0.2092324335849338 0  0.1770037380811163 0.2187948169810202 0  0.2229962619188838 0.2187948169810201 0  0.2679837387624884 0.2092324335849338 0  0.3100000000000001 0.1905255888325765 0  0.3472087333989489 0.1634918616050267 0  0.3779837387624885 0.1293127555043441 0  0.4009800006813722 0.08948206147667603 0  0.4052662851173224 0.07629023443250138 0  0.4200599930048062 0.1082663100071745 0  0.4475409466961425 0.1444168863592189 0  0.4821507162738997 0.173814689612947 0  0.522270987378618 0.1950851111615262 0  0.5660257807239194 0.2072335697337205 0  0.6113691708029376 0.209692016908736 0  0.6561809510911363 0.2023454984290368 0  0.6983657725469559 0.1855375293336648 0  0.7359511198041838 0.1600540315768036 0  0.7671795437981852 0.1270865851906907 0  0.7895690044779959 0.089875012069959 0  0.7989002782867461 0.1116194513821486 0  0.825485631780658 0.1498156710261111 0  0.8592156240140376 0.1818784194956707 0  0.8987093451417441 0.2064950441012706 0  0.9423499175804944 0.222657737339227 0  0.9883506911670961 0.2297047966493422 0  1.034828388826053 0.2273477145954656 0  1.079880208154309 0.2156829903938285 0  1.121661722375201 0.1951881792237927 0  1.158462391387408 0.1667023410626976 0  1.188775591477674 0.1313916894718022 0  1.211360296672653 0.09070184667606328 0  1.225291886488074 0.04629865962039181 0  1.23 0 0  1.38 0 0  1.384807527838563 0.04574057197990705 0  1.399019999318628 0.08948206147667601 0  1.422016261237512 0.1293127555043441 0  1.452791266601051 0.1634918616050268 0  1.49 0.1905255888325765 0  1.532016261237512 0.2092324335849338 0  1.577003738081116 0.2187948169810202 0  1.622996261918884 0.2187948169810201 0  1.667983738762489 0.2092324335849338 0  1.71 0.1905255888325765 0  1.747208733398949 0.1634918616050267 0  1.763158635297163 0.1457777009465727 0  1.8 0.1732050807568878 0  1.842639353457782 0.1915979024630978 0  1.888371034217905 0.1996616316542537 0  1.934729635533386 0.1969615506024416 0  1.979215953207831 0.1836432213760548 0  2.019431718340557 0.1604246385510087 0  2.053208888623796 0.1285575219373079 0  2.078726528064682 0.08975983604009244 0  2.089496128668151 0.06017060156551748 0  2.099019999318628 0.08948206147667601 0  2.122016261237512 0.1293127555043441 0  2.152791266601051 0.1634918616050268 0  2.19 0.1905255888325765 0  2.232016261237511 0.2092324335849338 0  2.277003738081116 0.2187948169810202 0  2.322996261918884 0.2187948169810201 0  2.367983738762488 0.2092324335849338 0  2.41 0.1905255888325765 0  2.447208733398949 0.1634918616050267 0  2.457084733682728 0.1525234520934048 0  2.4821507162739 0.173814689612947 0  2.522270987378618 0.1950851111615262 0  2.56602578072392 0.2072335697337205 0  2.611369170802938 0.209692016908736 0  2.656180951091136 0.2023454984290368 0  2.698365772546956 0.1855375293336648 0  2.735951119804184 0.1600540315768036 0  2.767179543798185 0.1270865851906907 0  2.790590838130901 0.08817671132765556 0  2.805090316699118 0.04514379244431505 0  2.81 0 0  3 0 0  3 1.5 0  0 0.7956998320486358 0  0.4110904441558352 0.08887894789033324 0  0.7773699356874649 0.1101500221202465 0  1.5 1.5 0  3 0.75 0  0 0.4434396522484503 0  3 0.375 0  0 0.2673095623483576 0  0 0.1792445173983112 0  0 0.135211994923288 0  2.25 1.5 0  0.75 1.5 0  1.807676614587897 0.8837271123414687 0  1.04553857344641 0.8979441530181422 0  2.403437242208115 0.8132876225209357 0  0.5070864579510219 1.00719278150819 0  3 1.125 0  1.338035405010484 0.5883821138073757 0  2.625 1.5 0  0.3818338799394321 0.6099209340690734 0  2.067950237167102 0.5767429460037152 0  1.428016626639016 0.9663701540160734 0  1.875 1.5 0  2.136976695697423 1.114248364898298 0  1.125 1.5 0  0.375 1.5 0  0.7837785056474272 0.5924157926009261 0  2.621900904970652 1.121900904970652 0  0 1.147849916024318 0  1.717071692555337 0.550779009763445 0  1.678619011272733 1.204235418149387 0  0.8184015011321764 1.160011833453945 0  2.690771901920515 0.5625 0  1.191553529739931 1.18494431212041 0  2.361743998733192 0.516240498397431 0  2.727335050325185 0.8509414958930873 0  1.061120194703906 0.6196995992969355 0  0.269244960297408 0.8637990218922467 0  0.7609530458041533 0.8768664729047809 0  0.5625 1.286150286226427 0  0.2788879438654684 1.226607136693913 0  2.077535333020466 0.8486969269297693 0  2.4375 1.312474598220077 0  2.809426100237187 1.309426100237187 0  1.544358239139601 0.7389704993474611 0  1.434454912167138 1.210530519498476 0  2.380335199591509 1.061271835208851 0  1.926191456889599 1.252931474193008 0  0.5486378118088926 0.7757115443742588 0  0.5753328044103648 0.454959652232189 0  1.281333603460298 0.3634530521588742 0  0.9959109141311655 1.308173392725312 0  1.507364216928931 0.4358170942512657 0  1.21812632380771 0.7680504611018459 0  0 0.6195697421485431 0  1.3125 1.5 0  0.2892140007400885 0.4197188740688536 0  1.924109453869066 0.4139433366638808 0  0.9329747065756857 0.4375180073994652 0  2.243231692495831 0.684324343130167 0  2.0625 1.5 0  2.124178136191116 0.3821183579116478 0  1.923364695744858 0.7179848099571996 0  2.233034933769442 1.295537230099697 0  1.961794510294921 1.014032929092127 0  0.9133498533613748 0.7509830595402348 0  0 0.9717748740364769 0  0.1875 1.5 0  0 1.323924958012159 0  1.227107007305785 0.9862124750220198 0  1.616617139708145 0.9194004298184476 0  2.811636610329211 1.039737091854792 0  0.1901803394569171 0.5855957240372172 0  2.511165533602297 0.6467174115519351 0  2.536466024168012 0.9507486861843897 0  0.1866521719860137 1.047526440960541 0  2.74946330463778 0.3751246081287475 0  2.543804048982231 0.4145708923164018 0  0.9375 1.5 0  2.4375 1.5 0  0.5625 1.5 0  3 0.5625 0  1.6875 1.5 0  3 0.1875 0  3 0.9375 0  3 1.3125 0  2.8125 1.5 0  1.010044310702206 1.096645863828023 0  2.623488142128434 1.314011651358178 0  2.229558763998408 0.9540962470011799 0  2.845385950960257 0.65625 0  0.7525337220569124 0.4130199536593896 0  1.10537722367743 0.3921278680533664 0  0.6842290971134891 1.039833940778862 0  0.7386374643770518 1.32083913541365 0  1.553387564684306 1.08522930563603 0  1.788789291239656 1.06235950910253 0  1.559809215736361 1.334301807720895 0  1.750410104758408 0.7205088288478614 0  1.672011031024921 0.3842266692686779 0  1.77867146649739 1.349246747510312 0  1.21875 1.355246746101045 0  0.8723426006985372 1.001666865795386 0  1.380631426145093 0.7466576340788873 0  0.4259246536592668 0.3283409344703117 0  0.3444360723462823 1.008028502358495 0  0.6161474109915657 0.6198433096250735 0  0.4265019066463465 1.151756411601508 0  1.403034104827827 1.367717620859348 0  2.874684993382777 0.28125 0  2.874778249279309 0.46875 0  2.071314369495706 1.334001876948522 0  2.3 0.3730371416193449 0  1.322682484320052 1.105857305698365 0  1.563127563616163 0.5828461597844022 0  2.559040610931566 0.7958017532902765 0  1.213306121383676 0.5002133671656324 0  1.916121887065227 0.5659454196943852 0  2.207677378621353 0.5116761937353096 0  0.1257028237453774 1.235887437018238 0  0.7203062975228639 0.7304636720840537 0  0.3921145397364951 0.7663844669080319 0  2.70905347612285 0.7067207479465436 0  2.87968965213058 0.84375 0  0.1396742765227637 0.3714373577111671 0  0.1209675020841686 0.8837373530425563 0  0.1396318055029159 0.7309656161457982 0  0.4039274761094683 1.336239793581983 0  2.676470777350768 0.9877614171414461 0  0.2098223519481562 1.355491059017463 0  0.6161949108813681 0.9073080762684851 0  0.6728981805985057 1.187471545812503 0  0.4313243650936899 0.473428383024358 0  1.317579957488075 0.8752219089473544 0  1.05247475519209 0.7587740171666131 0  0.9218858728134471 0.6117854803862035 0  2.343741823603972 1.201704901656183 0  2.483180588903391 1.163054990844907 0  1.336494261441537 0.237261632693729 0  2.096334636915305 0.983917300563715 0  2.059942810014369 0.7131710752499992 0  1.940957218750955 0.8535106616369695 0  0.2735884026449029 0.6956028768230409 0  2.3791553829517 0.6794620539851567 0  2.443566922502795 0.3224565874575337 0  2.21140571429892 0.8179437442036444 0  2.863880028189143 1.175018869261394 0  1.212122991296861 0.6341965806889284 0  0.8702381850023826 1.37471255674248 0  0.4252003220264352 0.89843828480276 0  2.714126143737636 1.217200861470203 0  2.34375 1.406237299110039 0  2.71875 1.406237608026668 0  2.903224894283775 1.403224894283775 0  2.53125 1.5 0  1.444637821860123 0.3169971434781329 0  1.307097209138961 1.253815337580837 0  1.806074818262501 0.3310941379078186 0  0.09375 1.5 0  1.96875 1.5 0  1.467196512253796 0.8429542418758076 0  0.7811182225539175 0.2860230046382459 0  0.8880470276332622 0.8755399020562793 0  2.004554624687214 1.142507703833496 0  1.901808674873915 1.376717053991818 0  1.80956117606876 1.192202387775541 0  0.65625 1.5 0  2.256163989601168 1.076312782066936 0  2.35728348455407 0.9340561611988477 0  0.5508073343087652 1.161974855816299 0  1.822201850254356 0.484799098822588 0  0.6415475671733072 0.3394071993736185 0  0.6854011703162045 0.5171310296285601 0  2.010601404748645 0.3128962050875828 0  1.458109478391155 0.6494112449225909 0  1.556659288882675 1.21212759481645 0  2.15625 1.5 0  1.102952541966123 1.010721102324488 0  3 0.09375 0  2.905 0 0  1.698833571793874 0.8302602504158462 0  0.1128136071602732 0.4908067814983783 0  1.375215724596343 0.4593979824254396 0  1.667188501011557 1.033651962891267 0  0.5152717989473731 0.5573202673988191 0  0.4756630816937197 0.6823252715484635 0  2.485944291803511 0.5248037876852512 0  0.609375 1.393075143113214 0  1.657554629504312 0.6506084627130724 0  1.180547956106694 0.2992004577305749 0  1.040994897946075 0.4976964206623483 0  2.883588023402782 0.1625217501240843 0  1.437965738677728 1.09476840787
[...]
<PointData  Tensors="f_834"> 
<DataArray  type="Float64"  Name="f_834"  NumberOfComponents="9" format="ascii">-4.6776797356839328e+00 4.4472745260735964e+00 0.0000000000000000e+00 4.4472745260735964e+00 -1.4114687588981825e+01 0.0000000000000000e+00 0.0000000000000000e+00 0.0000000000000000e+00 0.0000000000000000e+00  2.9111410361426021e+01 -4.1840242145997436e-01 0.0000000000000000e+00 -4.1840242145997436e-01 3.0379368917481354e+01 0.0000000000000000e+00 0.0000000000000000e+00 0.0000000000000000e+00 0.0000000000000000e+00  2.7023951658989468e+01 -7.4332173431328108e-01 0.0000000000000000e+00 -7.4332173431328108e-01 2.7925819595187150e+01 0.0000000000000000e+00 0.0000000000000000e+00 0.0000000000000000e+00 0.0000000000000000e+00  5.9722591325724444e+01 -1.3732623561216251e+01 0.0000000000000000e+00 -1.3732623561216251e+01 -4.3045424878587707e-01 0.0000000000000000e+00 0.0000000000000000e+00 0.0000000000000000e+00 0.0000000000000000e+00  8.1604181440311564e+01 -4.8138050346982027e+01 0.0000000000000000e+00 -4.8138050346982027e+01 -3.9759091686559344e+01 0.0000000000000000e+00 0.0000000000000000e+00 0.0000000000000000e+00 0.0000000000000000e+00  7.0180085658030663e+01 -2.9724153320293748e+01 0.0000000000000000e+00 -2.9724153320293748e+01 -1.1829715534718954e+01 0.0000000000000000e+00 0.0000000000000000e+00 0.0000000000000000e+00 0.0000000000000000e+00  3.1003012690779890e+01 2.9663848105908652e+01 0.0000000000000000e+00 2.9663848105908652e+01 1.0649011328929143e+01 0.0000000000000000e+00 0.0000000000000000e+00 0.0000000000000000e+00 0.0000000000000000e+00  3.9815343829738147e+01 8.0104366324017349e+01 0.0000000000000000e+00 8.0104366324017349e+01 -1.1548753316472358e+00 0.0000000000000000e+00 0.0000000000000000e+00 0.0000000000000000e+00 0.0000000000000000e+00  2.3709433708128149e+01 3.6343109943351912e+01 0.0000000000000000e+00 3.6343109943351912e+01 2.3014627162741768e+01 0.0000000000000000e+00 0.0000000000000000e+00 0.0000000000000000e+00 0.0000000000000000e+00  -3.7570097974769276e+01 -9.1051939989315347e+00 0.0000000000000000e+00 -9.1051939989315347e+00 8.9369448179911146e+01 0.0000000000000000e+00 0.0000000000000000e+00 0.0000000000000000e+00 0.0000000000000000e+00  -7.9433362226073470e+01 -4.7634345726054278e-01 0.0000000000000000e+00 -4.7634345726054278e-01 1.2898997537698779e+02 0.0000000000000000e+00 0.0000000000000000e+00 0.0000000000000000e+00 0.0000000000000000e+00  -3.0936544953307312e+01 4.4115864909343312e+00 0.0000000000000000e+00 4.4115864909343312e+00 7.3295924139190561e+01 0.0000000000000000e+00 0.0000000000000000e+00 0.0000000000000000e+00 0.0000000000000000e+00  2.0871847128125143e+01 -3.7294940254977100e+00 0.0000000000000000e+00 -3.7294940254977100e+00 1.9035688126070184e+01 0.0000000000000000e+00 0.0000000000000000e+00 0.0000000000000000e+00 0.0000000000000000e+00  2.3276714192474476e+01 -9.1502238377340162e-01 0.0000000000000000e+00 -9.1502238377340162e-01 2.0282598227724428e+01 0.0000000000000000e+00 0.0000000000000000e+00 0.0000000000000000e+00 0.0000000000000000e+00  5.0140834501220688e+01 1.5568737297772823e+00 0.0000000000000000e+00 1.5568737297772823e+00 2.2653036711547432e+00 0.0000000000000000e+00 0.0000000000000000e+00 0.0000000000000000e+00 0.0000000000000000e+00  7.1040681604859302e+01 7.9092340785241522e+00 0.0000000000000000e+00 7.9092340785241522e+00 -2.4163611687279886e+01 0.0000000000000000e+00 0.0000000000000000e+00 0.0000000000000000e+00 0.0000000000000000e+00  4.2421944500211870e+00 4.1708752416749997e+00 0.0000000000000000e+00 4.1708752416749997e+00 2.7413479797737146e+01 0.0000000000000000e+00 0.0000000000000000e+00 0.0000000000000000e+00 0.0000000000000000e+00  -3.6126574304891648e+01 7.3217826834948511e+01 0.0000000000000000e+00 7.3217826834948511e+01 7.3520315168341199e+01 0.0000000000000000e+00 0.0000000000000000e+00 0.0000000000000000e+00 0.0000000000000000e+00  -2.2077934452995088e+01 6.5467630976320436e+01 0.0000000000000000e+00 6.5467630976320436e+01 6.7157579493427733e+01 0.0000000000000000e+00 0.0000000000000000e+00 0.0000000000000000e+00 0.0000000000000000e+00  -1.0317878298201306e+01 -1.6392055973416042e+01 0.0000000000000000e+00 -1.6392055973416042e+01 5.7136491190753169e+01 0.0000000000000000e+00 0.0000000000000000e+00 0.0000000000000000e+00 0.0000000000000000e+00  -2.2886813368912996e+01 -4.2271146106053010e+01 0.0000000000000000e+00 -4.2271146106053010e+01 6.2044433658660488e+01 0.0000000000000000e+00 0.0000000000000000e+00 0.0000000000000000e+00 0.0000000000000000e+00  1.2264086782505165e+01 -3.0975649132254574e+01 0.0000000000000000e+00 -3.0975649132254574e+01 3.4537202870873841e+01 0.0000000000000000e+00 0.0000000000000000e+00 0.0000000000000000e+00 0.0000000000000000e+00  4.7129977208261685e+01 -6.6274086600484603e+00 0.0000000000000000e+00 -6.6274086600484603e+00 -1.7307624149963781e+00 0.0000000000000000e+00 0.0000000000000000e+00 0.0000000000000000e+00 0.0000000000000000e+00  6.0114345864781633e+01 2.2746579051343924e-01 0.0000000000000000e+00 2.2746579051343924e-01 -1.5641238158705635e+01 0.0000000000000000e+00 0.0000000000000000e+00 0.0000000000000000e+00 0.0000000000000000e+00  2.1369702159098495e+01 2.7352210825773726e+00 0.0000000000000000e+00 2.7352210825773726e+00 2.0587114172806697e+01 0.0000000000000000e+00 0.0000000000000000e+00 0.0000000000000000e+00 0.0000000000000000e+00  4.6462256299612985e+00 1.0680151485730147e+00 0.0000000000000000e+00 1.0680151485730147e+00 3.1601356340611446e+01 0.0000000000000000e+00 0.0000000000000000e+00 0.0000000000000000e+00 0.0000000000000000e+00  -3.7046823830616979e+01 -2.4717266530172166e+00 0.0000000000000000e+00 -2.4717266530172166e+00 7.7604480760152299e+01 0.0000000000000000e+00 0.0000000000000000e+00 0.0000000000000000e+00 0.0000000000000000e+00  -7.3440761357410864e+01 2.5788809134397791e+01 0.0000000000000000e+00 2.5788809134397791e+01 1.3236664363848973e+02 0.0000000000000000e+00 0.0000000000000000e+00 0.0000000000000000e+00 0.0000000000000000e+00  -2.2349789443414114e+01 2.1138220695827719e+01 0.0000000000000000e+00 2.1138220695827719e+01 7.9776993160724601e+01 0.0000000000000000e+00 0.0000000000000000e+00 0.0000000000000000e+00 0.0000000000000000e+00  1.7504406168122777e+01 -3.0269011787391321e+01 0.0000000000000000e+00 -3.0269011787391321e+01 3.4833502942381806e+01 0.0000000000000000e+00 0.0000000000000000e+00 0.0000000000000000e+00 0.0000000000000000e+00  2.0132417144320112e+01 -8.0954529033386351e+01 0.0000000000000000e+00 -8.0954529033386351e+01 -4.0028249902111854e+00 0.0000000000000000e+00 0.0000000000000000e+00 0.0000000000000000e+00 0.0000000000000000e+00  5.5886309059692589e+00 -6.7319495199148847e+00 0.0000000000000000e+00 -6.7319495199148847e+00 1.4322664519746796e+01 0.0000000000000000e+00 0.0000000000000000e+00 0.0000000000000000e+00 0.0000000000000000e+00  7.3203687789361894e+01 5.5104488825666948e+01 0.0000000000000000e+00 5.5104488825666948e+01 -4.6749510421362466e+01 0.0000000000000000e+00 0.0000000000000000e+00 0.0000000000000000e+00 0.0000000000000000e+00  7.6822209109491823e+01 4.5496362750719356e+01 0.0000000000000000e+00 4.5496362750719356e+01 -2.6518440708685446e+01 0.0000000000000000e+00 0.0000000000000000e+00 0.0000000000000000e+00 0.0000000000000000e+00  1.5430142065120343e+01 1.2772101854746623e+01 0.0000000000000000e+00 1.2772101854746623e+01 3.1853523468760645e+01 0.0000000000000000e+00 0.0000000000000000e+00 0.0000000000000000e+00 0.0000000000000000e+00  -4.8258068293080122e+01 4.3781157180149840e+01 0.0000000000000000e+00 4.3781157180149840e+01 9.5487683953275962e+01 0.0000000000000000e+00 0.0000000000000000e+00 0.0000000000000000e+00 0.0000000000000000e+00  -4.6445426123564367e+01 7.2885767604005807e+01 0.0000000000000000e+00 7.2885767604005807e+01 8.6533718657905780e+01 0.0000000000000000e+00 0.0000000000000000e+00 0.0000000000000000e+00 0.0000000000000000e+00  -1.7771329433684851e+01 9.4652297787795789e+01 0.0000000000000000e+00 9.4652297787795789e+01 6.2169775461977068e+01 0.0000000000000000e+00 0.0000000000000000e+00 0.0000000000000000e+00 0.0000000000000000e+00  1.3267515774815363e+01 -1.1402692335487439e+01 0.0000000000000000e+00 -1.1402692335487439e+01 4.1784486951235380e+01 0.0000000000000000e+00 0.0000000000000000e+00 0.0000000000000000e+00 0.0000000000000000e+00  2.2369064788542694e+01 -1.3484103949077886e+00 0.0000000000000000e+00 -1.3484103949077886e+00 1.7991862527443821e+01 0.0000000000000000e+00 0.0000000000000000e+00 0.0000000000000000e+00 0.0000000000000000e+00  3.6960884999538841e+01 2.0736161614394177e+01 0.0000000000000000e+00 2.0736161614394177e+01 9.1759140070326382e+00 0.0000000000000000e+00 0.0000000000000000e+00 0.0000000000000000e+00 0.0000000000000000e+00  2.6520526847807929e+01 1.3504044378784963e+01 0.0000000000000000e+00 1.3504044378784963e+01 1.7433912925929963e+01 0.0000000000000000e+00 0.0000000000000000e+00 0.0000000000000000e+00 0.0000000000000000e+00  -1.4093373936414553e+01 -9.0327375563463672e+00 0.0000000000000000e+00 -9.0327375563463672e+00 5.3535276395254677e+01 0.0000000000000000e+00 0.0000000000000000e+00 0.0000000000000000e+00 0.0000000000000000e+00  -7.3778851644730850e+01 7.7173354181369138e+00 0.0000000000000000e+00 7.7173354181369138e+00 9.8871289799074063e+01 0.0000000000000000e+00 0.0000000000000000e+00 0.0000000000000000e+00 0.0000000000000000e+00  -4.1763070451726065e+01 1.7083590020980161e+01 0.0000000000000000e+00 1.7083590020980161e+01 8.8030585785973969e+01 0.0000000000000000e+00 0.0000000000000000e+00 0.0000000000000000e+00 0.0000000000000000e+00  1.0141785446894191e+01 -3.1261640798629617e+01 0.0000000000000000e+00 -3.1261640798629617e+01 3.5553039242083656e+01 0.0000000000000000e+00 0.0000000000000000e+00 0.0000000000000000e+00 0.0000000000000000e+00  1.4161575081731828e+01 -6.4459591872149375e+01 0.0000000000000000e+00 -6.4459591872149375e+01 9.5830192857621714e+00 0.0000000000000000e+00 0.0000000000000000e+00 0.0000000000000000e+00 0.0000000000000000e+00  4.4347218027096943e+01 -2.8305397985226289e+01 0.0000000000000000e+00 -2.8305397985226289e+01 -4.4917943737879797e+00 0.0000000000000000e+00 0.0000000000000000e+00 0.0000000000000000e+00 0.0000000000000000e+00  6.4737414092073223e+01 4.2414399017645160e+01 0.0000000000000000e+00 4.2414399017645160e+01 -2.7327129738614680e+01 0.0000000000000000e+00 0.0000000000000000e+00 0.0000000000000000e+00 0.0000000000000000e+00  9.7383816020084097e+01 5.4633307661439190e+01 0.0000000000000000e+00 5.4633307661439190e+01 -5.5631440501649912e+01 0.0000000000000000e+00 0.0000000000000000e+00 0.0000000000000000e+00 0.0000000000000000e+00  5.5545208542779065e+01 1.4593577896611455e+01 0.0000000000000000e+00 1.4593577896611455e+01 -1.0955795483078489e+01 0.0000000000000000e+00 0.0000000000000000e+00 0.0000000000000000e+00 0.0000000000000000e+00  2.3307330257828053e+01 6.8783724440204486e+00 0.0000000000000000e+00 6.8783724440204486e+00 2.0005438572815443e+01 0.0000000000000000e+00 0.0000000000000000e+00 0.0000000000000000e+00 0.0000000000000000e+00  -9.2514534211182085e+00 4.8642052574819985e+00 0.0000000000000000e+00 4.8642052574819985e+00 5.3178615087828369e+01 0.0000000000000000e+00 0.0000000000000000e+00 0.0000000000000000e+00 0.0000000000000000e+00  3.8604245543197216e+01 -5.0387743055081927e+01 0.0000000000000000e+00 -5.0387743055081927e+01 1.3008160530867258e+01 0.0000000000000000e+00 0.0000000000000000e+00 0.0000000000000000e+00 0.0000000000000000e+00  2.4337480135733749e+01 -8.1348229224264657e+01 0.0000000000000000e+00 -8.1348229224264657e+01 1.0364322266672443e-01 0.0000000000000000e+00 0.0000000000000000e+00 0.0000000000000000e+00 0.0000000000000000e+00  2.6604143078644274e+01 -1.4534893389824756e+01 0.0000000000000000e+00 -1.4534893389824756e+01 -2.2767900189807539e+00 0.0000000000000000e+00 0.0000000000000000e+00 0.0000000000000000e+00 0.0000000000000000e+00  6.0922901506200681e+01 3.6137742886032981e+01 0.0000000000000000e+00 3.6137742886032981e+01 -3.5209814545784745e+01 0.0000000000000000e+00 0.0000000000000000e+00 0.0000000000000000e+00 0.0000000000000000e+00  6.7418343086029068e+01 2.9211624593491461e+01 0.0000000000000000e+00 2.9211624593491461e+01 -3.9640355442087376e+01 0.0000000000000000e+00 0.0000000000000000e+00 0.0000000000000000e+00 0.0000000000000000e+00  5.5384543548367645e+01 5.3469046371639877e+00 0.0000000000000000e+00 5.3469046371639877e+00 -8.9870979666868447e+00 0.0000000000000000e+00 0.0000000000000000e+00 0.0000000000000000e+00 0.0000000000000000e+00  2.1365095483997251e+01 1.2914390104098785e+00 0.0000000000000000e+00 1.2914390104098785e+00 2.0070868199982026e+01 0.0000000000000000e+00 0.0000000000000000e+00 0.0000000000000000e+00 0.0000000000000000e+00  2.2741119653631586e+01 8.1369568994906927e-01 0.0000000000000000e+00 8.1369568994906927e-01 2.3074593212278721e+01 0.0000000000000000e+00 0.0000000000000000e+00 0.0000000000000000e+00 0.0000000000000000e+00  2.3592962149252685e+01 -6.6053787696576616e-01 0.0000000000000000e+00 -6.6053787696576616e-01 2.0607316964000614e+01 0.0000000000000000e+00 0.0000000000000000e+00 0.0000000000000000e+00 0.0000000000000000e+00  1.4144473275101813e+01 -8.3638941217722564e+00 0.0000000000000000e+00 -8.3638941217722564e+00 2.5868314875636013e+01 0.0000000000000000e+00 0.0000000000000000e+00 0.0000000000000000e+00 0.0000000000000000e+00  5.2412583331610939e+01 -1.7262305227373211e+01 0.0000000000000000e+00 -1.7262305227373211e+01 -2.1378473018927529e+01 0.0000000000000000e+00 0.0000000000000000e+00 0.0000000000000000e+00 0.0000000000000000e+00  8.2191616881340110e+01 -6.2478813469647179e+01 0.0000000000000000e+00 -6.2478813469647179e+01 -5.4899710000660022e+01 0.0000000000000000e+00 0.0000000000000000e+00 0.0000000000000000e+00 0.0000000000000000e+00  6.0488845508749819e+01 -5.1068800596279111e+01 0.0000000000000000e+00 -5.1068800596279111e+01 -4.1628033883836785e+01 0.0000000000000000e+00 0.0000000000000000e+00 0.0000000000000000e+00 0.0000000000000000e+00  2.7462003331030250e+01 1.7786326491885507e+01 0.0000000000000000e+00 1.7786326491885507e+01 -4.0698576112123348e+00 0.0000000000000000e+00 0.0000000000000000e+00 0.0000000000000000e+00 0.0000000000000000e+00  2.3979224298053282e+01 4.7154196931029148e+01 0.0000000000000000e+00 4.7154196931029148e+01 1.3601287964968376e+01 0.0000000000000000e+00 0.0000000000000000e+00 0.0000000000000000e+00 0.0000000000000000e+00  -1.2465779047911420e+01 -4.5591971273730367e+00 0.0000000000000000e+00 -4.5591971273730367e+00 3.6506769839023875e+01 0.0000000000000000e+00 0.0000000000000000e+00 0.0000000000000000e+00 0.0000000000000000e+00  -6.2482058072328556e+01 -3.6956564042597265e+01 0.0000000000000000e+00 -3.6956564042597265e+01 8.6970614879902001e+01 0.0000000000000000e+00 0.0000000000000000e+00 0.0000000000000000e+00 0.0000000000000000e+00  -3.3650610163819628e+01 -4.8926930778371172e+01 0.0000000000000000e+00 -4.8926930778371172e+01 4.2564645913667313e+01 0.0000000000000000e+00 0.0000000000000000e+00 0.0000000000000000e+00 0.0000000000000000e+00  1.8733418420672887e+01 -1.2518436529288397e+01 0.0000000000000000e+00 -1.2518436529288397e+01 2.4610747026810088e+01 0.0000000000000000e+00 0.0000000000000000e+00 0.0000000000000000e+00 0.0000000000000000e+00  6.7922356270414070e+01 -4.7891578017685781e+01 0.0000000000000000e+00 -4.7891578017685781e+01 -3.4454093604768055e+01 0.0000000000000000e+00 0.0000000000000000e+00 0.0000000000000000e+00 0.0000000000000000e+00  7.3736591476939353e+01 -6.6003865486359032e+01 0.0000000000000000e+00 -6.6003865486359032e+01 -6.3342465490275657e+01 0.0000000000000000e+00 0.0000000000000000e+00 0.0000000000000000e+00 0.0000000000000000e+00  5.0664862129759648e+01 -3.9754140033963296e+01 0.0000000000000000e+00 -3.9754140033963296e+01 -2.3064543293818165e+01 0.0000000000000000e+00 0.0000000000000000e+00 0.0000000000000000e+00 0.0000000000000000e+00  5.2847577954420286e+00 1.5010452939301768e+00 0.0000000000000000e+00 1.5010452939301768e+00 7.4886306477157270e+00 0.0000000000000000e+00 0.0000000000000000e+00 0.0000000000000000e+00 0.0000000000000000e+00  -2.3792227325209236e+01 -2.7897962635983458e+01 0.0000000000000000e+00 -2.7897962635983458e+01 5.2779814873863081e+01 0.0000000000000000e+00 0.0000000000000000e+00 0.0000000000000000e+00 0.0000000000000000e+00  -1.6154864135141148e+02 -6.3764241062283247e+01 0.0000000000000000e+00 -6.3764241062283247e+01 1.6679507890364192e+02 0.0000000000000000e+00 0.0000000000000000e+00 0.0000000000000000e+00 0.0000000000000000e+00  -1.9113226659490641e+02 -2.8969457546667151e+01 0.0000000000000000e+00 -2.8969457546667151e+01 1.9499705455146804e+02 0.0000000000000000e+00 0.0000000000000000e+00 0.0000000000000000e+00 0.0000000000000000e+00  -1.4576250349272726e+02 1.7224673826273325e+01 0.0000000000000000e+00 1.7224673826273325e+01 1.6140210630324518e+02 0.0000000000000000e+00 0.0000000000000000e+00 0.0000000000000000e+00 0.0000000000000000e+00  -7.7275468272518168e+01 6.4124727976844625e+01 0.0000000000000000e+00 6.4124727976844625e+01 7.6971110668470914e+01 0.0000000000000000e+00 0.0000000000000000e+00 0.0000000000000000e+00 0.0000000000000000e+00  -1.1158849445158934e+01 3.0171469959313757e+01 0.0000000000000000e+00 3.0171469959313761e+01 1.9025997681762330e+01 0.0000000000000000e+00 0.0000000000000000e+00 0.0000000000000000e+00 0.0000000000000000e+00  -9.0768522157127329e-01 6.4339404128989699e+00 0.0000000000000000e+00 6.4339404128989699e+00 1.5060021804496357e+01 0.0000000000000000e+00 0.0000000000000000e+00 0.0000000000000000e+00 0.0000000000000000e+00  -1.6714677468046824e+02 9.9693822259571334e+01 0.0000000000000000e+00 9.9693822259571334e+01 -3.8002383924695295e+01 0.0000000000000000e+00 0.0000000000000000e+00 0.0000000000000000e+00 0.0000000000000000e+00  3.4242411959486526e+02 2.0164104035571947e+02 0.0000000000000000e+00 2.0164104035571947e+02 6.2129423045462467e+01 0.0000000000000000e+00 0.0000000000000000e+00 0.0000000000000000e+00 0.0000000000000000e+00  1.1616048685262809e+01 8.6994851796406337e+01 0.0000000000000000e+00 8.6994851796406337e+01 4.8547763260553625e+00 0.0000000000000000e+00 0.0000000000000000e+00 0.0000000000000000e+00 0.0000000000000000e+00  2.5308008079744397e+01 -1.2183406311929652e+00 0.0000000000000000e+00 -1.2183406311929652e+00 2.2777372944626890e+01 0.0000000000000000e+00 0.0000000000000000e+00 0.0000000000000000e+00 0.0000000000000000e+00  3.6552879932520703e+01 5.0601741136940923e+00 0.0000000000000000e+00 5.0601741136940923e+00 1.1095851334086186e+01 0.0000000000000000e+00 0.0000000000000000e+00 0.0000000000000000e+00 0.0000000000000000e+00  -2.2057375584081264e+01 5.2223216372556678e+00 0.0000000000000000e+00 5.2223216372556678e+00 -2.0994454472183598e+01 0.0000000000000000e+00 0.0000000000000000e+00 0.0000000000000000e+00 0.0000000000000000e+00  9.6094389770677680e+00 -1.7393910352419510e+02 0.0000000000000000e+00 -1.7393910352419510e+02 -6.2022541324719045e+00 0.0000000000000000e+00 0.0000000000000000e+00 0.0000000000000000e+00 0.0000000000000000e+00  1.3738930800859205e+01 9.0538578888475286e+01 0.0000000000000000e+00 9.0538578888475286e+01 2.3789241656581900e+01 0.0000000000000000e+00 0.0000000000000000e+00 0.0000000000000000e+00 0.0000000000000000e+00  9.2819961754712878e+01 -1.1115824534109629e+02 0.0000000000000000e+00 -1.1115824534109629e+02 2.8422296796810103e+00 0.0000000000000000e+00 0.0000000000000000e+00 0.0000000000000000e+00 0.0000000000000000e+00  2.1311140435574508e+01 8.8960945749860599e+01 0.0000000000000000e+00 8.8960945749860599e+01 2.4050928288956637e+01 0.0000000000000000e+00 0.0000000000000000e+00 0.0000000000000000e+00 0.0000000000000000e+00  1.4717656140109774e+01 2.9490273665000231e+01 0.0000000000000000e+00 2.9490273665000231e+01 3.1191229253264325e+01 0.0000000000000000e+00 0.0000000000000000e+00 0.0000000000000000e+00 0.0000000000000000e+00  2.8907368738920642e+01 -2.0217418685868796e-01 0.0000000000000000e+00 -2.0217418685868796e-01 2.6886372040655765e+01 0.0000000000000000e+00 0.0000000000000000e+00 0.0000000000000000e+00 0.000