<?xml version="1.0"?>
<VTKFile type="UnstructuredGrid"  version="0.1"  >
<UnstructuredGrid>
<Piece  NumberOfPoints="4961" NumberOfCells="9546">
<Points>
<DataArray  type="Float64"  NumberOfComponents="3"  format="ascii">0 1.5 0  -0 0.09117947244826481 0  0.0220162612375116 0.1293127555043441 0  0.05279126660105127 0.1634918616050268 0  0.09000000000000007 0.1905255888325765 0  0.1320162612375116 0.2092324335849338 0  0.1770037380811163 0.2187948169810202 0  0.2229962619188838 0.2187948169810201 0  0.2679837387624884 0.2092324335849338 0  0.3100000000000001 0.1905255888325765 0  0.3472087333989489 0.1634918616050267 0  0.3779837387624885 0.1293127555043441 0  0.4009800006813722 0.08948206147667603 0  0.4052662851173224 0.07629023443250138 0  0.4200599930048062 0.1082663100071745 0  0.4475409466961425 0.1444168863592189 0  0.4821507162738997 0.173814689612947 0  0.522270987378618 0.1950851111615262 0  0.5660257807239194 0.2072335697337205 0  0.6113691708029376 0.209692016908736 0  0.6561809510911363 0.2023454984290368 0  0.6983657725469559 0.1855375293336648 0  0.7359511198041838 0.1600540315768036 0  0.7671795437981852 0.1270865851906907 0  0.7895690044779959 0.089875012069959 0  0.7989002782867461 0.1116194513821486 0  0.825485631780658 0.1498156710261111 0  0.8592156240140376 0.1818784194956707 0  0.8987093451417441 0.2064950441012706 0  0.9423499175804944 0.222657737339227 0  0.9883506911670961 0.2297047966493422 0  1.034828388826053 0.2273477145954656 0  1.079880208154309 0.2156829903938285 0  1.121661722375201 0.1951881792237927 0  1.158462391387408 0.1667023410626976 0  1.188775591477674 0.1313916894718022 0  1.211360296672653 0.09070184667606328 0  1.225291886488074 0.04629865962039181 0  1.23 0 0  1.38 0 0  1.384807527838563 0.04574057197990705 0  1.399019999318628 0.08948206147667601 0  1.422016261237512 0.1293127555043441 0  1.452791266601051 0.1634918616050268 0  1.49 0.1905255888325765 0  1.532016261237512 0.2092324335849338 0  1.577003738081116 0.2187948169810202 0  1.622996261918884 0.2187948169810201 0  1.667983738762489 0.2092324335849338 0  1.71 0.1905255888325765 0  1.747208733398949 0.1634918616050267 0  1.763158635297163 0.1457777009465727 0  1.8 0.1732050807568878 0  1.842639353457782 0.1915979024630978 0  1.888371034217905 0.1996616316542537 0  1.934729635533386 0.1969615506024416 0  1.979215953207831 0.1836432213760548 0  2.019431718340557 0.1604246385510087 0  2.053208888623796 0.1285575219373079 0  2.078726528064682 0.08975983604009244 0  2.089496128668151 0.06017060156551748 0  2.099019999318628 0.08948206147667601 0  2.122016261237512 0.1293127555043441 0  2.152791266601051 0.1634918616050268 0  2.19 0.1905255888325765 0  2.232016261237511 0.2092324335849338 0  2.277003738081116 0.2187948169810202 0  2.322996261918884 0.2187948169810201 0  2.367983738762488 0.2092324335849338 0  2.41 0.1905255888325765 0  2.447208733398949 0.1634918616050267 0  2.457084733682728 0.1525234520934048 0  2.4821507162739 0.173814689612947 0  2.522270987378618 0.1950851111615262 0  2.56602578072392 0.2072335697337205 0  2.611369170802938 0.209692016908736 0  2.656180951091136 0.2023454984290368 0  2.698365772546956 0.1855375293336648 0  2.735951119804184 0.1600540315768036 0  2.767179543798185 0.1270865851906907 0  2.790590838130901 0.08817671132765556 0  2.805090316699118 0.04514379244431505 0  2.81 0 0  3 0 0  3 1.5 0  0 0.7956998320486358 0  0.4110904441558352 0.08887894789033324 0  0.7773699356874649 0.1101500221202465 0  1.5 1.5 0  3 0.75 0  0 0.4434396522484503 0  3 0.375 0  0 0.2673095623483576 0  0 0.1792445173983112 0  0 0.135211994923288 0  2.25 1.5 0  0.75 1.5 0  1.807676614587897 0.8837271123414687 0  1.04553857344641 0.8979441530181422 0  2.403437242208115 0.8132876225209357 0  0.5070864579510219 1.00719278150819 0  3 1.125 0  1.338035405010484 0.5883821138073757 0  2.625 1.5 0  0.3818338799394321 0.6099209340690734 0  2.067950237167102 0.5767429460037152 0  1.428016626639016 0.9663701540160734 0  1.875 1.5 0  2.136976695697423 1.114248364898298 0  1.125 1.5 0  0.375 1.5 0  0.7837785056474272 0.5924157926009261 0  2.621900904970652 1.121900904970652 0  0 1.147849916024318 0  1.717071692555337 0.550779009763445 0  1.678619011272733 1.204235418149387 0  0.8184015011321764 1.160011833453945 0  2.690771901920515 0.5625 0  1.191553529739931 1.18494431212041 0  2.361743998733192 0.516240498397431 0  2.727335050325185 0.8509414958930873 0  1.061120194703906 0.6196995992969355 0  0.269244960297408 0.8637990218922467 0  0.7609530458041533 0.8768664729047809 0  0.5625 1.286150286226427 0  0.2788879438654684 1.226607136693913 0  2.077535333020466 0.8486969269297693 0  2.4375 1.312474598220077 0  2.809426100237187 1.309426100237187 0  1.544358239139601 0.7389704993474611 0  1.434454912167138 1.210530519498476 0  2.380335199591509 1.061271835208851 0  1.926191456889599 1.252931474193008 0  0.5486378118088926 0.7757115443742588 0  0.5753328044103648 0.454959652232189 0  1.281333603460298 0.3634530521588742 0  0.9959109141311655 1.308173392725312 0  1.507364216928931 0.4358170942512657 0  1.21812632380771 0.7680504611018459 0  0 0.6195697421485431 0  1.3125 1.5 0  0.2892140007400885 0.4197188740688536 0  1.924109453869066 0.4139433366638808 0  0.9329747065756857 0.4375180073994652 0  2.243231692495831 0.684324343130167 0  2.0625 1.5 0  2.124178136191116 0.3821183579116478 0  1.923364695744858 0.7179848099571996 0  2.233034933769442 1.295537230099697 0  1.961794510294921 1.014032929092127 0  0.9133498533613748 0.7509830595402348 0  0 0.9717748740364769 0  0.1875 1.5 0  0 1.323924958012159 0  1.227107007305785 0.9862124750220198 0  1.616617139708145 0.9194004298184476 0  2.811636610329211 1.039737091854792 0  0.1901803394569171 0.5855957240372172 0  2.511165533602297 0.6467174115519351 0  2.536466024168012 0.9507486861843897 0  0.1866521719860137 1.047526440960541 0  2.74946330463778 0.3751246081287475 0  2.543804048982231 0.4145708923164018 0  0.9375 1.5 0  2.4375 1.5 0  0.5625 1.5 0  3 0.5625 0  1.6875 1.5 0  3 0.1875 0  3 0.9375 0  3 1.3125 0  2.8125 1.5 0  1.010044310702206 1.096645863828023 0  2.623488142128434 1.314011651358178 0  2.229558763998408 0.9540962470011799 0  2.845385950960257 0.65625 0  0.7525337220569124 0.4130199536593896 0  1.10537722367743 0.3921278680533664 0  0.6842290971134891 1.039833940778862 0  0.7386374643770518 1.32083913541365 0  1.553387564684306 1.08522930563603 0  1.788789291239656 1.06235950910253 0  1.559809215736361 1.334301807720895 0  1.750410104758408 0.7205088288478614 0  1.672011031024921 0.3842266692686779 0  1.77867146649739 1.349246747510312 0  1.21875 1.355246746101045 0  0.8723426006985372 1.001666865795386 0  1.380631426145093 0.7466576340788873 0  0.4259246536592668 0.3283409344703117 0  0.3444360723462823 1.008028502358495 0  0.6161474109915657 0.6198433096250735 0  0.4265019066463465 1.151756411601508 0  1.403034104827827 1.367717620859348 0  2.874684993382777 0.28125 0  2.874778249279309 0.46875 0  2.071314369495706 1.334001876948522 0  2.3 0.3730371416193449 0  1.322682484320052 1.105857305698365 0  1.563127563616163 0.5828461597844022 0  2.559040610931566 0.7958017532902765 0  1.213306121383676 0.5002133671656324 0  1.916121887065227 0.5659454196943852 0  2.207677378621353 0.5116761937353096 0  0.1257028237453774 1.235887437018238 0  0.7203062975228639 0.7304636720840537 0  0.3921145397364951 0.7663844669080319 0  2.70905347612285 0.7067207479465436 0  2.87968965213058 0.84375 0  0.1396742765227637 0.3714373577111671 0  0.1209675020841686 0.8837373530425563 0  0.1396318055029159 0.7309656161457982 0  0.4039274761094683 1.336239793581983 0  2.676470777350768 0.9877614171414461 0  0.2098223519481562 1.355491059017463 0  0.6161949108813681 0.9073080762684851 0  0.6728981805985057 1.187471545812503 0  0.4313243650936899 0.473428383024358 0  1.317579957488075 0.8752219089473544 0  1.05247475519209 0.7587740171666131 0  0.9218858728134471 0.6117854803862035 0  2.343741823603972 1.201704901656183 0  2.483180588903391 1.163054990844907 0  1.336494261441537 0.237261632693729 0  2.096334636915305 0.983917300563715 0  2.059942810014369 0.7131710752499992 0  1.940957218750955 0.8535106616369695 0  0.2735884026449029 0.6956028768230409 0  2.3791553829517 0.6794620539851567 0  2.443566922502795 0.3224565874575337 0  2.21140571429892 0.8179437442036444 0  2.863880028189143 1.175018869261394 0  1.212122991296861 0.6341965806889284 0  0.8702381850023826 1.37471255674248 0  0.4252003220264352 0.89843828480276 0  2.714126143737636 1.217200861470203 0  2.34375 1.406237299110039 0  2.71875 1.406237608026668 0  2.903224894283775 1.403224894283775 0  2.53125 1.5 0  1.444637821860123 0.3169971434781329 0  1.307097209138961 1.253815337580837 0  1.806074818262501 0.3310941379078186 0  0.09375 1.5 0  1.96875 1.5 0  1.467196512253796 0.8429542418758076 0  0.7811182225539175 0.2860230046382459 0  0.8880470276332622 0.8755399020562793 0  2.004554624687214 1.142507703833496 0  1.901808674873915 1.376717053991818 0  1.80956117606876 1.192202387775541 0  0.65625 1.5 0  2.256163989601168 1.076312782066936 0  2.35728348455407 0.9340561611988477 0  0.5508073343087652 1.161974855816299 0  1.822201850254356 0.484799098822588 0  0.6415475671733072 0.3394071993736185 0  0.6854011703162045 0.5171310296285601 0  2.010601404748645 0.3128962050875828 0  1.458109478391155 0.6494112449225909 0  1.556659288882675 1.21212759481645 0  2.15625 1.5 0  1.102952541966123 1.010721102324488 0  3 0.09375 0  2.905 0 0  1.698833571793874 0.8302602504158462 0  0.1128136071602732 0.4908067814983783 0  1.375215724596343 0.4593979824254396 0  1.667188501011557 1.033651962891267 0  0.5152717989473731 0.5573202673988191 0  0.4756630816937197 0.6823252715484635 0  2.485944291803511 0.5248037876852512 0  0.609375 1.393075143113214 0  1.657554629504312 0.6506084627130724 0  1.180547956106694 0.2992004577305749 0  1.040994897946075 0.4976964206623483 0  2.883588023402782 0.1625217501240843 0  1.437965738677728 1.09476840787
[...]
<PointData  Tensors="f_568"> 
<DataArray  type="Float64"  Name="f_568"  NumberOfComponents="9" format="ascii">-6.8793228472856205e+00 5.3085045021134905e+00 0.0000000000000000e+00 5.3085045021134905e+00 -1.5233773809563637e+01 0.0000000000000000e+00 0.0000000000000000e+00 0.0000000000000000e+00 0.0000000000000000e+00  2.9762544490348581e+01 -4.5605973211896211e-01 0.0000000000000000e+00 -4.5605973211896211e-01 3.1013223639403765e+01 0.0000000000000000e+00 0.0000000000000000e+00 0.0000000000000000e+00 0.0000000000000000e+00  2.7595108276045544e+01 -7.5991431506345297e-01 0.0000000000000000e+00 -7.5991431506345297e-01 2.8629908425339021e+01 0.0000000000000000e+00 0.0000000000000000e+00 0.0000000000000000e+00 0.0000000000000000e+00  5.4002252664381864e+01 -9.9846138612972641e+00 0.0000000000000000e+00 -9.9846138612972641e+00 5.7279583285125186e+00 0.0000000000000000e+00 0.0000000000000000e+00 0.0000000000000000e+00 0.0000000000000000e+00  6.6994471586841016e+01 -3.5237437957625261e+01 0.0000000000000000e+00 -3.5237437957625261e+01 -2.4482916673418217e+01 0.0000000000000000e+00 0.0000000000000000e+00 0.0000000000000000e+00 0.0000000000000000e+00  5.9298125086236041e+01 -1.9581786425495459e+01 0.0000000000000000e+00 -1.9581786425495459e+01 -2.3992393255871600e+00 0.0000000000000000e+00 0.0000000000000000e+00 0.0000000000000000e+00 0.0000000000000000e+00  3.0881424508086305e+01 2.0316657473553317e+01 0.0000000000000000e+00 2.0316657473553317e+01 1.0927709126774753e+01 0.0000000000000000e+00 0.0000000000000000e+00 0.0000000000000000e+00 0.0000000000000000e+00  3.6654111294000046e+01 5.9449761363048630e+01 0.0000000000000000e+00 5.9449761363048630e+01 3.8688853624214912e+00 0.0000000000000000e+00 0.0000000000000000e+00 0.0000000000000000e+00 0.0000000000000000e+00  2.3500943349447073e+01 2.9119745979582849e+01 0.0000000000000000e+00 2.9119745979582849e+01 2.2010552802346609e+01 0.0000000000000000e+00 0.0000000000000000e+00 0.0000000000000000e+00 0.0000000000000000e+00  -2.2637539329569204e+01 -5.3480368033863526e+00 0.0000000000000000e+00 -5.3480368033863526e+00 7.2021891797938039e+01 0.0000000000000000e+00 0.0000000000000000e+00 0.0000000000000000e+00 0.0000000000000000e+00  -4.8825930977690597e+01 -5.5303957887905164e-01 0.0000000000000000e+00 -5.5303957887905164e-01 1.0023888526968972e+02 0.0000000000000000e+00 0.0000000000000000e+00 0.0000000000000000e+00 0.0000000000000000e+00  -1.6090368944568006e+01 2.8147766719771634e+00 0.0000000000000000e+00 2.8147766719771634e+00 5.8982407177452735e+01 0.0000000000000000e+00 0.0000000000000000e+00 0.0000000000000000e+00 0.0000000000000000e+00  2.1634079041047727e+01 -3.0451573027020036e+00 0.0000000000000000e+00 -3.0451573027020036e+00 2.0870610563610185e+01 0.0000000000000000e+00 0.0000000000000000e+00 0.0000000000000000e+00 0.0000000000000000e+00  2.3853378536973239e+01 -8.8228697048732097e-01 0.0000000000000000e+00 -8.8228697048732097e-01 2.1265134829514565e+01 0.0000000000000000e+00 0.0000000000000000e+00 0.0000000000000000e+00 0.0000000000000000e+00  4.6209529142894830e+01 3.0309695339188867e+00 0.0000000000000000e+00 3.0309695339188867e+00 5.6397603050535228e+00 0.0000000000000000e+00 0.0000000000000000e+00 0.0000000000000000e+00 0.0000000000000000e+00  6.0102450130651661e+01 7.3056962861024095e+00 0.0000000000000000e+00 7.3056962861024095e+00 -1.2055819367289834e+01 0.0000000000000000e+00 0.0000000000000000e+00 0.0000000000000000e+00 0.0000000000000000e+00  8.6326241750708181e+00 3.2004528539576707e+00 0.0000000000000000e+00 3.2004528539576707e+00 2.6592822250716793e+01 0.0000000000000000e+00 0.0000000000000000e+00 0.0000000000000000e+00 0.0000000000000000e+00  -1.9628144819735908e+01 5.3889334533825661e+01 0.0000000000000000e+00 5.3889334533825661e+01 5.8645724046985706e+01 0.0000000000000000e+00 0.0000000000000000e+00 0.0000000000000000e+00 0.0000000000000000e+00  -9.0194411534157837e+00 4.8106718019417620e+01 0.0000000000000000e+00 4.8106718019417620e+01 5.4841247986998603e+01 0.0000000000000000e+00 0.0000000000000000e+00 0.0000000000000000e+00 0.0000000000000000e+00  -3.7883832910776594e+00 -1.4564083158180868e+01 0.0000000000000000e+00 -1.4564083158180868e+01 4.9158016952307200e+01 0.0000000000000000e+00 0.0000000000000000e+00 0.0000000000000000e+00 0.0000000000000000e+00  -7.7233844952442441e+00 -3.1297908041395413e+01 0.0000000000000000e+00 -3.1297908041395413e+01 5.0880425403128086e+01 0.0000000000000000e+00 0.0000000000000000e+00 0.0000000000000000e+00 0.0000000000000000e+00  1.6491665936604310e+01 -2.2218166641619863e+01 0.0000000000000000e+00 -2.2218166641619863e+01 2.9194995076508881e+01 0.0000000000000000e+00 0.0000000000000000e+00 0.0000000000000000e+00 0.0000000000000000e+00  4.1287750054929937e+01 -6.7004641457800203e+00 0.0000000000000000e+00 -6.7004641457800203e+00 3.7096268709117131e+00 0.0000000000000000e+00 0.0000000000000000e+00 0.0000000000000000e+00 0.0000000000000000e+00  5.3402598932694275e+01 1.1484716410604064e-01 0.0000000000000000e+00 1.1484716410604064e-01 -7.0871899520456143e+00 0.0000000000000000e+00 0.0000000000000000e+00 0.0000000000000000e+00 0.0000000000000000e+00  2.2020195515445714e+01 2.3569090742173957e+00 0.0000000000000000e+00 2.3569090742173957e+00 2.0268169454998770e+01 0.0000000000000000e+00 0.0000000000000000e+00 0.0000000000000000e+00 0.0000000000000000e+00  7.7785839696276540e+00 6.9174157844813788e-01 0.0000000000000000e+00 6.9174157844813788e-01 2.9427026618861685e+01 0.0000000000000000e+00 0.0000000000000000e+00 0.0000000000000000e+00 0.0000000000000000e+00  -1.9652296491537495e+01 -1.3546000005227972e+00 0.0000000000000000e+00 -1.3546000005227972e+00 6.0629597037116888e+01 0.0000000000000000e+00 0.0000000000000000e+00 0.0000000000000000e+00 0.0000000000000000e+00  -4.3536385133713424e+01 1.9856075112205435e+01 0.0000000000000000e+00 1.9856075112205435e+01 1.0344128350023512e+02 0.0000000000000000e+00 0.0000000000000000e+00 0.0000000000000000e+00 0.0000000000000000e+00  -9.2101766871482518e+00 1.6216894475467139e+01 0.0000000000000000e+00 1.6216894475467139e+01 6.3591685322292129e+01 0.0000000000000000e+00 0.0000000000000000e+00 0.0000000000000000e+00 0.0000000000000000e+00  1.8551917108870498e+01 -2.2408445388836196e+01 0.0000000000000000e+00 -2.2408445388836196e+01 3.0830183681993407e+01 0.0000000000000000e+00 0.0000000000000000e+00 0.0000000000000000e+00 0.0000000000000000e+00  1.9330476185890788e+01 -5.9506577908318455e+01 0.0000000000000000e+00 -5.9506577908318455e+01 -7.8557544947459021e-02 0.0000000000000000e+00 0.0000000000000000e+00 0.0000000000000000e+00 0.0000000000000000e+00  8.9859425988527448e+00 -4.6975321823674561e+00 0.0000000000000000e+00 -4.6975321823674561e+00 1.3606314473547538e+01 0.0000000000000000e+00 0.0000000000000000e+00 0.0000000000000000e+00 0.0000000000000000e+00  5.8226207972305538e+01 3.8797341241408539e+01 0.0000000000000000e+00 3.8797341241408539e+01 -3.0173851041807765e+01 0.0000000000000000e+00 0.0000000000000000e+00 0.0000000000000000e+00 0.0000000000000000e+00  6.4281478560839915e+01 3.4029105331844612e+01 0.0000000000000000e+00 3.4029105331844612e+01 -1.3811039397357868e+01 0.0000000000000000e+00 0.0000000000000000e+00 0.0000000000000000e+00 0.0000000000000000e+00  1.8281821222257083e+01 1.0953188642468852e+01 0.0000000000000000e+00 1.0953188642468852e+01 2.8473127402558458e+01 0.0000000000000000e+00 0.0000000000000000e+00 0.0000000000000000e+00 0.0000000000000000e+00  -2.7596264330264564e+01 3.3319692639367716e+01 0.0000000000000000e+00 3.3319692639367716e+01 7.5421680590518065e+01 0.0000000000000000e+00 0.0000000000000000e+00 0.0000000000000000e+00 0.0000000000000000e+00  -2.5706982720546335e+01 4.8222929219615224e+01 0.0000000000000000e+00 4.8222929219615224e+01 6.9867262305343402e+01 0.0000000000000000e+00 0.0000000000000000e+00 0.0000000000000000e+00 0.0000000000000000e+00  -6.2313867227642676e+00 6.7486846223168058e+01 0.0000000000000000e+00 6.7486846223168058e+01 5.0530934572813109e+01 0.0000000000000000e+00 0.0000000000000000e+00 0.0000000000000000e+00 0.0000000000000000e+00  1.3483421777060663e+01 -1.2308210983152772e+01 0.0000000000000000e+00 -1.2308210983152772e+01 3.8277567394531566e+01 0.0000000000000000e+00 0.0000000000000000e+00 0.0000000000000000e+00 0.0000000000000000e+00  2.2197940455843987e+01 -5.2566798744502574e-01 0.0000000000000000e+00 -5.2566798744502574e-01 1.9482090517189185e+01 0.0000000000000000e+00 0.0000000000000000e+00 0.0000000000000000e+00 0.0000000000000000e+00  3.3863459208068214e+01 1.5875764431239590e+01 0.0000000000000000e+00 1.5875764431239590e+01 1.3299374283825324e+01 0.0000000000000000e+00 0.0000000000000000e+00 0.0000000000000000e+00 0.0000000000000000e+00  2.4874022235483977e+01 9.4451598119286810e+00 0.0000000000000000e+00 9.4451598119286810e+00 2.0206092602420579e+01 0.0000000000000000e+00 0.0000000000000000e+00 0.0000000000000000e+00 0.0000000000000000e+00  -4.5153976787313619e+00 -6.4267810553032030e+00 0.0000000000000000e+00 -6.4267810553032030e+00 4.5005201289960866e+01 0.0000000000000000e+00 0.0000000000000000e+00 0.0000000000000000e+00 0.0000000000000000e+00  -4.7301645779967949e+01 5.2974128069043074e+00 0.0000000000000000e+00 5.2974128069043074e+00 7.6358757401249818e+01 0.0000000000000000e+00 0.0000000000000000e+00 0.0000000000000000e+00 0.0000000000000000e+00  -2.3229914951663066e+01 1.3448556690128273e+01 0.0000000000000000e+00 1.3448556690128273e+01 6.9212219709676560e+01 0.0000000000000000e+00 0.0000000000000000e+00 0.0000000000000000e+00 0.0000000000000000e+00  1.3904820136770061e+01 -2.3546933057814737e+01 0.0000000000000000e+00 -2.3546933057814737e+01 3.1592725430552981e+01 0.0000000000000000e+00 0.0000000000000000e+00 0.0000000000000000e+00 0.0000000000000000e+00  1.8063829145886025e+01 -4.4610279750748113e+01 0.0000000000000000e+00 -4.4610279750748113e+01 1.1243020643518076e+01 0.0000000000000000e+00 0.0000000000000000e+00 0.0000000000000000e+00 0.0000000000000000e+00  4.0277755195317845e+01 -2.0561629281931229e+01 0.0000000000000000e+00 -2.0561629281931229e+01 -8.8020430826414642e-01 0.0000000000000000e+00 0.0000000000000000e+00 0.0000000000000000e+00 0.0000000000000000e+00  5.3156057444176184e+01 2.8545185293428080e+01 0.0000000000000000e+00 2.8545185293428080e+01 -1.4299421452394444e+01 0.0000000000000000e+00 0.0000000000000000e+00 0.0000000000000000e+00 0.0000000000000000e+00  7.9477086795718506e+01 3.9032782594909087e+01 0.0000000000000000e+00 3.9032782594909087e+01 -3.4957707236369913e+01 0.0000000000000000e+00 0.0000000000000000e+00 0.0000000000000000e+00 0.0000000000000000e+00  4.8826389530434156e+01 9.8294274954481171e+00 0.0000000000000000e+00 9.8294274954481171e+00 -3.1021819145260241e+00 0.0000000000000000e+00 0.0000000000000000e+00 0.0000000000000000e+00 0.0000000000000000e+00  2.2930124399616961e+01 3.5891533213068776e+00 0.0000000000000000e+00 3.5891533213068776e+00 2.3352601811887087e+01 0.0000000000000000e+00 0.0000000000000000e+00 0.0000000000000000e+00 0.0000000000000000e+00  -1.4993765920627005e+00 4.3049267372231199e+00 0.0000000000000000e+00 4.3049267372231199e+00 4.3797552838776468e+01 0.0000000000000000e+00 0.0000000000000000e+00 0.0000000000000000e+00 0.0000000000000000e+00  3.6551315735212732e+01 -3.8288602052563334e+01 0.0000000000000000e+00 -3.8288602052563334e+01 1.5069322278522757e+01 0.0000000000000000e+00 0.0000000000000000e+00 0.0000000000000000e+00 0.0000000000000000e+00  2.2913706890547793e+01 -5.8767239862724040e+01 0.0000000000000000e+00 -5.8767239862724040e+01 2.3862474660096917e+00 0.0000000000000000e+00 0.0000000000000000e+00 0.0000000000000000e+00 0.0000000000000000e+00  2.2412067434188817e+01 -1.0968461418817689e+01 0.0000000000000000e+00 -1.0968461418817689e+01 9.3421309963199428e-01 0.0000000000000000e+00 0.0000000000000000e+00 0.0000000000000000e+00 0.0000000000000000e+00  4.8680570427844486e+01 2.3643371314061550e+01 0.0000000000000000e+00 2.3643371314061550e+01 -2.1854896721012260e+01 0.0000000000000000e+00 0.0000000000000000e+00 0.0000000000000000e+00 0.0000000000000000e+00  5.3493012698265062e+01 1.9292537160374984e+01 0.0000000000000000e+00 1.9292537160374984e+01 -2.2868216441968030e+01 0.0000000000000000e+00 0.0000000000000000e+00 0.0000000000000000e+00 0.0000000000000000e+00  4.8206633575048365e+01 4.7189046721407140e+00 0.0000000000000000e+00 4.7189046721407140e+00 -1.2944786873350789e+00 0.0000000000000000e+00 0.0000000000000000e+00 0.0000000000000000e+00 0.0000000000000000e+00  2.1806499202723842e+01 1.1712383580735506e+00 0.0000000000000000e+00 1.1712383580735506e+00 2.1000656528515506e+01 0.0000000000000000e+00 0.0000000000000000e+00 0.0000000000000000e+00 0.0000000000000000e+00  2.3368627587936491e+01 8.6067134492674602e-01 0.0000000000000000e+00 8.6067134492674602e-01 2.3705568728455034e+01 0.0000000000000000e+00 0.0000000000000000e+00 0.0000000000000000e+00 0.0000000000000000e+00  2.4608928184092409e+01 -7.0188385629222250e-01 0.0000000000000000e+00 -7.0188385629222250e-01 2.0805066464262001e+01 0.0000000000000000e+00 0.0000000000000000e+00 0.0000000000000000e+00 0.0000000000000000e+00  1.6182786195632730e+01 -6.1814875004641010e+00 0.0000000000000000e+00 -6.1814875004641010e+00 2.4428830650000961e+01 0.0000000000000000e+00 0.0000000000000000e+00 0.0000000000000000e+00 0.0000000000000000e+00  4.4373261339668048e+01 -1.4683420948822173e+01 0.0000000000000000e+00 -1.4683420948822173e+01 -1.3806541544794619e+01 0.0000000000000000e+00 0.0000000000000000e+00 0.0000000000000000e+00 0.0000000000000000e+00  6.4834520946669386e+01 -4.6597027345627438e+01 0.0000000000000000e+00 -4.6597027345627438e+01 -3.6492090349961870e+01 0.0000000000000000e+00 0.0000000000000000e+00 0.0000000000000000e+00 0.0000000000000000e+00  4.7990642589009802e+01 -3.6285420357025927e+01 0.0000000000000000e+00 -3.6285420357025927e+01 -2.8445866747796163e+01 0.0000000000000000e+00 0.0000000000000000e+00 0.0000000000000000e+00 0.0000000000000000e+00  2.4716497126637545e+01 1.1421857195205542e+01 0.0000000000000000e+00 1.1421857195205542e+01 -1.1211605978457213e+00 0.0000000000000000e+00 0.0000000000000000e+00 0.0000000000000000e+00 0.0000000000000000e+00  2.4150233785702564e+01 3.4049879444600876e+01 0.0000000000000000e+00 3.4049879444600876e+01 1.3423880326852407e+01 0.0000000000000000e+00 0.0000000000000000e+00 0.0000000000000000e+00 0.0000000000000000e+00  -5.8952610891156008e+00 -1.3573586751414373e+00 0.0000000000000000e+00 -1.3573586751414373e+00 2.9674320117044768e+01 0.0000000000000000e+00 0.0000000000000000e+00 0.0000000000000000e+00 0.0000000000000000e+00  -4.0782324806050923e+01 -2.6571890442134993e+01 0.0000000000000000e+00 -2.6571890442134993e+01 6.5269094994612729e+01 0.0000000000000000e+00 0.0000000000000000e+00 0.0000000000000000e+00 0.0000000000000000e+00  -2.7989185119827038e+01 -3.7162686211425765e+01 0.0000000000000000e+00 -3.7162686211425765e+01 3.7342286219582611e+01 0.0000000000000000e+00 0.0000000000000000e+00 0.0000000000000000e+00 0.0000000000000000e+00  1.3454273692641243e+01 -3.0343155496764740e+00 0.0000000000000000e+00 -3.0343155496764740e+00 2.8101508213393050e+01 0.0000000000000000e+00 0.0000000000000000e+00 0.0000000000000000e+00 0.0000000000000000e+00  5.5790520829679728e+01 -3.5595657989809141e+01 0.0000000000000000e+00 -3.5595657989809141e+01 -2.3809033197483650e+01 0.0000000000000000e+00 0.0000000000000000e+00 0.0000000000000000e+00 0.0000000000000000e+00  5.9371246838042019e+01 -4.5994621604168074e+01 0.0000000000000000e+00 -4.5994621604168074e+01 -4.4578984184075701e+01 0.0000000000000000e+00 0.0000000000000000e+00 0.0000000000000000e+00 0.0000000000000000e+00  4.4586378564694229e+01 -3.1928570641574851e+01 0.0000000000000000e+00 -3.1928570641574851e+01 -1.7531296679140794e+01 0.0000000000000000e+00 0.0000000000000000e+00 0.0000000000000000e+00 0.0000000000000000e+00  7.0757655896141198e+00 1.3052186259888892e+00 0.0000000000000000e+00 1.3052186259888892e+00 7.3528133562861093e+00 0.0000000000000000e+00 0.0000000000000000e+00 0.0000000000000000e+00 0.0000000000000000e+00  -1.3434974208537088e+01 -1.8708839237956465e+01 0.0000000000000000e+00 -1.8708839237956465e+01 3.9881595784236431e+01 0.0000000000000000e+00 0.0000000000000000e+00 0.0000000000000000e+00 0.0000000000000000e+00  -1.2030140795699724e+02 -4.5268664792482696e+01 0.0000000000000000e+00 -4.5268664792482696e+01 1.2746432751172121e+02 0.0000000000000000e+00 0.0000000000000000e+00 0.0000000000000000e+00 0.0000000000000000e+00  -1.3662724650725420e+02 -2.3715774753900028e+01 0.0000000000000000e+00 -2.3715774753900028e+01 1.4366391567999568e+02 0.0000000000000000e+00 0.0000000000000000e+00 0.0000000000000000e+00 0.0000000000000000e+00  -1.0702103959972486e+02 1.1589727776712134e+01 0.0000000000000000e+00 1.1589727776712134e+01 1.1960669956538945e+02 0.0000000000000000e+00 0.0000000000000000e+00 0.0000000000000000e+00 0.0000000000000000e+00  -5.9108686781059674e+01 5.0105287699043572e+01 0.0000000000000000e+00 5.0105287699043572e+01 6.2397716377874197e+01 0.0000000000000000e+00 0.0000000000000000e+00 0.0000000000000000e+00 0.0000000000000000e+00  -8.7242846950244637e+00 2.5113508962841667e+01 0.0000000000000000e+00 2.5113508962841667e+01 1.6713742944220215e+01 0.0000000000000000e+00 0.0000000000000000e+00 0.0000000000000000e+00 0.0000000000000000e+00  -1.2527347343673505e+00 6.2803951794223059e+00 0.0000000000000000e+00 6.2803951794223059e+00 1.4844775484075077e+01 0.0000000000000000e+00 0.0000000000000000e+00 0.0000000000000000e+00 0.0000000000000000e+00  -1.1069534151117648e+02 7.1126077244201923e+01 0.0000000000000000e+00 7.1126077244201923e+01 -3.0828966433153649e+01 0.0000000000000000e+00 0.0000000000000000e+00 0.0000000000000000e+00 0.0000000000000000e+00  2.3689754664213399e+02 1.3430466074677631e+02 0.0000000000000000e+00 1.3430466074677631e+02 3.3011432918438771e+01 0.0000000000000000e+00 0.0000000000000000e+00 0.0000000000000000e+00 0.0000000000000000e+00  1.1053784796192616e+01 6.3379406930475483e+01 0.0000000000000000e+00 6.3379406930475483e+01 6.2713457356843882e+00 0.0000000000000000e+00 0.0000000000000000e+00 0.0000000000000000e+00 0.0000000000000000e+00  2.5130842442907799e+01 -1.0105730298507707e+00 0.0000000000000000e+00 -1.0105730298507707e+00 2.3853232991951852e+01 0.0000000000000000e+00 0.0000000000000000e+00 0.0000000000000000e+00 0.0000000000000000e+00  3.5627339036700164e+01 3.8920971428369304e+00 0.0000000000000000e+00 3.8920971428369304e+00 1.2080099350112151e+01 0.0000000000000000e+00 0.0000000000000000e+00 0.0000000000000000e+00 0.0000000000000000e+00  -2.0555408842368561e+01 3.8439258295015533e+00 0.0000000000000000e+00 3.8439258295015533e+00 -2.1467524801227619e+01 0.0000000000000000e+00 0.0000000000000000e+00 0.0000000000000000e+00 0.0000000000000000e+00  8.0020934663919583e+00 -1.3064740195882786e+02 0.0000000000000000e+00 -1.3064740195882786e+02 -5.8120143181770132e+00 0.0000000000000000e+00 0.0000000000000000e+00 0.0000000000000000e+00 0.0000000000000000e+00  1.4321821582157241e+01 6.6327003532933915e+01 0.0000000000000000e+00 6.6327003532933915e+01 2.3825106809922008e+01 0.0000000000000000e+00 0.0000000000000000e+00 0.0000000000000000e+00 0.0000000000000000e+00  6.9010667556644705e+01 -9.9185167564666216e+01 0.0000000000000000e+00 -9.9185167564666216e+01 -1.0342288768850694e+00 0.0000000000000000e+00 0.0000000000000000e+00 0.0000000000000000e+00 0.0000000000000000e+00  2.0944876425597620e+01 6.4242825790896575e+01 0.0000000000000000e+00 6.4242825790896575e+01 2.4530398752617678e+01 0.0000000000000000e+00 0.0000000000000000e+00 0.0000000000000000e+00 0.0000000000000000e+00  1.5985466298120237e+01 2.0308447284859390e+01 0.0000000000000000e+00 2.0308447284859390e+01 3.0327185806797118e+01 0.0000000000000000e+00 0.0000000000000000e+00 0.0000000000000000e+00 0.0000000000000000e+00  2.9743006421889049e+01 -3.7890590689497083e-01 0.0000000000000000e+00 -3.7890590689497083e-01 2.7314877778793843e+01 0.0000000000000000e+00 0.0000000000000000e+00 0.0000000000000000e+00 0.000000