<?xml version="1.0"?>
<VTKFile type="UnstructuredGrid"  version="0.1"  >
<UnstructuredGrid>
<Piece  NumberOfPoints="4961" NumberOfCells="9546">
<Points>
<DataArray  type="Float64"  NumberOfComponents="3"  format="ascii">0 1.5 0  -0 0.09117947244826481 0  0.0220162612375116 0.1293127555043441 0  0.05279126660105127 0.1634918616050268 0  0.09000000000000007 0.1905255888325765 0  0.1320162612375116 0.2092324335849338 0  0.1770037380811163 0.2187948169810202 0  0.2229962619188838 0.2187948169810201 0  0.2679837387624884 0.2092324335849338 0  0.3100000000000001 0.1905255888325765 0  0.3472087333989489 0.1634918616050267 0  0.3779837387624885 0.1293127555043441 0  0.4009800006813722 0.08948206147667603 0  0.4052662851173224 0.07629023443250138 0  0.4200599930048062 0.1082663100071745 0  0.4475409466961425 0.1444168863592189 0  0.4821507162738997 0.173814689612947 0  0.522270987378618 0.1950851111615262 0  0.5660257807239194 0.2072335697337205 0  0.6113691708029376 0.209692016908736 0  0.6561809510911363 0.2023454984290368 0  0.6983657725469559 0.1855375293336648 0  0.7359511198041838 0.1600540315768036 0  0.7671795437981852 0.1270865851906907 0  0.7895690044779959 0.089875012069959 0  0.7989002782867461 0.1116194513821486 0  0.825485631780658 0.1498156710261111 0  0.8592156240140376 0.1818784194956707 0  0.8987093451417441 0.2064950441012706 0  0.9423499175804944 0.222657737339227 0  0.9883506911670961 0.2297047966493422 0  1.034828388826053 0.2273477145954656 0  1.079880208154309 0.2156829903938285 0  1.121661722375201 0.1951881792237927 0  1.158462391387408 0.1667023410626976 0  1.188775591477674 0.1313916894718022 0  1.211360296672653 0.09070184667606328 0  1.225291886488074 0.04629865962039181 0  1.23 0 0  1.38 0 0  1.384807527838563 0.04574057197990705 0  1.399019999318628 0.08948206147667601 0  1.422016261237512 0.1293127555043441 0  1.452791266601051 0.1634918616050268 0  1.49 0.1905255888325765 0  1.532016261237512 0.2092324335849338 0  1.577003738081116 0.2187948169810202 0  1.622996261918884 0.2187948169810201 0  1.667983738762489 0.2092324335849338 0  1.71 0.1905255888325765 0  1.747208733398949 0.1634918616050267 0  1.763158635297163 0.1457777009465727 0  1.8 0.1732050807568878 0  1.842639353457782 0.1915979024630978 0  1.888371034217905 0.1996616316542537 0  1.934729635533386 0.1969615506024416 0  1.979215953207831 0.1836432213760548 0  2.019431718340557 0.1604246385510087 0  2.053208888623796 0.1285575219373079 0  2.078726528064682 0.08975983604009244 0  2.089496128668151 0.06017060156551748 0  2.099019999318628 0.08948206147667601 0  2.122016261237512 0.1293127555043441 0  2.152791266601051 0.1634918616050268 0  2.19 0.1905255888325765 0  2.232016261237511 0.2092324335849338 0  2.277003738081116 0.2187948169810202 0  2.322996261918884 0.2187948169810201 0  2.367983738762488 0.2092324335849338 0  2.41 0.1905255888325765 0  2.447208733398949 0.1634918616050267 0  2.457084733682728 0.1525234520934048 0  2.4821507162739 0.173814689612947 0  2.522270987378618 0.1950851111615262 0  2.56602578072392 0.2072335697337205 0  2.611369170802938 0.209692016908736 0  2.656180951091136 0.2023454984290368 0  2.698365772546956 0.1855375293336648 0  2.735951119804184 0.1600540315768036 0  2.767179543798185 0.1270865851906907 0  2.790590838130901 0.08817671132765556 0  2.805090316699118 0.04514379244431505 0  2.81 0 0  3 0 0  3 1.5 0  0 0.7956998320486358 0  0.4110904441558352 0.08887894789033324 0  0.7773699356874649 0.1101500221202465 0  1.5 1.5 0  3 0.75 0  0 0.4434396522484503 0  3 0.375 0  0 0.2673095623483576 0  0 0.1792445173983112 0  0 0.135211994923288 0  2.25 1.5 0  0.75 1.5 0  1.807676614587897 0.8837271123414687 0  1.04553857344641 0.8979441530181422 0  2.403437242208115 0.8132876225209357 0  0.5070864579510219 1.00719278150819 0  3 1.125 0  1.338035405010484 0.5883821138073757 0  2.625 1.5 0  0.3818338799394321 0.6099209340690734 0  2.067950237167102 0.5767429460037152 0  1.428016626639016 0.9663701540160734 0  1.875 1.5 0  2.136976695697423 1.114248364898298 0  1.125 1.5 0  0.375 1.5 0  0.7837785056474272 0.5924157926009261 0  2.621900904970652 1.121900904970652 0  0 1.147849916024318 0  1.717071692555337 0.550779009763445 0  1.678619011272733 1.204235418149387 0  0.8184015011321764 1.160011833453945 0  2.690771901920515 0.5625 0  1.191553529739931 1.18494431212041 0  2.361743998733192 0.516240498397431 0  2.727335050325185 0.8509414958930873 0  1.061120194703906 0.6196995992969355 0  0.269244960297408 0.8637990218922467 0  0.7609530458041533 0.8768664729047809 0  0.5625 1.286150286226427 0  0.2788879438654684 1.226607136693913 0  2.077535333020466 0.8486969269297693 0  2.4375 1.312474598220077 0  2.809426100237187 1.309426100237187 0  1.544358239139601 0.7389704993474611 0  1.434454912167138 1.210530519498476 0  2.380335199591509 1.061271835208851 0  1.926191456889599 1.252931474193008 0  0.5486378118088926 0.7757115443742588 0  0.5753328044103648 0.454959652232189 0  1.281333603460298 0.3634530521588742 0  0.9959109141311655 1.308173392725312 0  1.507364216928931 0.4358170942512657 0  1.21812632380771 0.7680504611018459 0  0 0.6195697421485431 0  1.3125 1.5 0  0.2892140007400885 0.4197188740688536 0  1.924109453869066 0.4139433366638808 0  0.9329747065756857 0.4375180073994652 0  2.243231692495831 0.684324343130167 0  2.0625 1.5 0  2.124178136191116 0.3821183579116478 0  1.923364695744858 0.7179848099571996 0  2.233034933769442 1.295537230099697 0  1.961794510294921 1.014032929092127 0  0.9133498533613748 0.7509830595402348 0  0 0.9717748740364769 0  0.1875 1.5 0  0 1.323924958012159 0  1.227107007305785 0.9862124750220198 0  1.616617139708145 0.9194004298184476 0  2.811636610329211 1.039737091854792 0  0.1901803394569171 0.5855957240372172 0  2.511165533602297 0.6467174115519351 0  2.536466024168012 0.9507486861843897 0  0.1866521719860137 1.047526440960541 0  2.74946330463778 0.3751246081287475 0  2.543804048982231 0.4145708923164018 0  0.9375 1.5 0  2.4375 1.5 0  0.5625 1.5 0  3 0.5625 0  1.6875 1.5 0  3 0.1875 0  3 0.9375 0  3 1.3125 0  2.8125 1.5 0  1.010044310702206 1.096645863828023 0  2.623488142128434 1.314011651358178 0  2.229558763998408 0.9540962470011799 0  2.845385950960257 0.65625 0  0.7525337220569124 0.4130199536593896 0  1.10537722367743 0.3921278680533664 0  0.6842290971134891 1.039833940778862 0  0.7386374643770518 1.32083913541365 0  1.553387564684306 1.08522930563603 0  1.788789291239656 1.06235950910253 0  1.559809215736361 1.334301807720895 0  1.750410104758408 0.7205088288478614 0  1.672011031024921 0.3842266692686779 0  1.77867146649739 1.349246747510312 0  1.21875 1.355246746101045 0  0.8723426006985372 1.001666865795386 0  1.380631426145093 0.7466576340788873 0  0.4259246536592668 0.3283409344703117 0  0.3444360723462823 1.008028502358495 0  0.6161474109915657 0.6198433096250735 0  0.4265019066463465 1.151756411601508 0  1.403034104827827 1.367717620859348 0  2.874684993382777 0.28125 0  2.874778249279309 0.46875 0  2.071314369495706 1.334001876948522 0  2.3 0.3730371416193449 0  1.322682484320052 1.105857305698365 0  1.563127563616163 0.5828461597844022 0  2.559040610931566 0.7958017532902765 0  1.213306121383676 0.5002133671656324 0  1.916121887065227 0.5659454196943852 0  2.207677378621353 0.5116761937353096 0  0.1257028237453774 1.235887437018238 0  0.7203062975228639 0.7304636720840537 0  0.3921145397364951 0.7663844669080319 0  2.70905347612285 0.7067207479465436 0  2.87968965213058 0.84375 0  0.1396742765227637 0.3714373577111671 0  0.1209675020841686 0.8837373530425563 0  0.1396318055029159 0.7309656161457982 0  0.4039274761094683 1.336239793581983 0  2.676470777350768 0.9877614171414461 0  0.2098223519481562 1.355491059017463 0  0.6161949108813681 0.9073080762684851 0  0.6728981805985057 1.187471545812503 0  0.4313243650936899 0.473428383024358 0  1.317579957488075 0.8752219089473544 0  1.05247475519209 0.7587740171666131 0  0.9218858728134471 0.6117854803862035 0  2.343741823603972 1.201704901656183 0  2.483180588903391 1.163054990844907 0  1.336494261441537 0.237261632693729 0  2.096334636915305 0.983917300563715 0  2.059942810014369 0.7131710752499992 0  1.940957218750955 0.8535106616369695 0  0.2735884026449029 0.6956028768230409 0  2.3791553829517 0.6794620539851567 0  2.443566922502795 0.3224565874575337 0  2.21140571429892 0.8179437442036444 0  2.863880028189143 1.175018869261394 0  1.212122991296861 0.6341965806889284 0  0.8702381850023826 1.37471255674248 0  0.4252003220264352 0.89843828480276 0  2.714126143737636 1.217200861470203 0  2.34375 1.406237299110039 0  2.71875 1.406237608026668 0  2.903224894283775 1.403224894283775 0  2.53125 1.5 0  1.444637821860123 0.3169971434781329 0  1.307097209138961 1.253815337580837 0  1.806074818262501 0.3310941379078186 0  0.09375 1.5 0  1.96875 1.5 0  1.467196512253796 0.8429542418758076 0  0.7811182225539175 0.2860230046382459 0  0.8880470276332622 0.8755399020562793 0  2.004554624687214 1.142507703833496 0  1.901808674873915 1.376717053991818 0  1.80956117606876 1.192202387775541 0  0.65625 1.5 0  2.256163989601168 1.076312782066936 0  2.35728348455407 0.9340561611988477 0  0.5508073343087652 1.161974855816299 0  1.822201850254356 0.484799098822588 0  0.6415475671733072 0.3394071993736185 0  0.6854011703162045 0.5171310296285601 0  2.010601404748645 0.3128962050875828 0  1.458109478391155 0.6494112449225909 0  1.556659288882675 1.21212759481645 0  2.15625 1.5 0  1.102952541966123 1.010721102324488 0  3 0.09375 0  2.905 0 0  1.698833571793874 0.8302602504158462 0  0.1128136071602732 0.4908067814983783 0  1.375215724596343 0.4593979824254396 0  1.667188501011557 1.033651962891267 0  0.5152717989473731 0.5573202673988191 0  0.4756630816937197 0.6823252715484635 0  2.485944291803511 0.5248037876852512 0  0.609375 1.393075143113214 0  1.657554629504312 0.6506084627130724 0  1.180547956106694 0.2992004577305749 0  1.040994897946075 0.4976964206623483 0  2.883588023402782 0.1625217501240843 0  1.437965738677728 1.09476840787
[...]
<PointData  Tensors="f_378"> 
<DataArray  type="Float64"  Name="f_378"  NumberOfComponents="9" format="ascii">-8.8466752256763108e+00 5.2270124506914257e+00 0.0000000000000000e+00 5.2270124506914257e+00 -1.4535615789646855e+01 0.0000000000000000e+00 0.0000000000000000e+00 0.0000000000000000e+00 0.0000000000000000e+00  3.0165899057847010e+01 -4.4068029972017148e-01 0.0000000000000000e+00 -4.4068029972017148e-01 3.1707948705141451e+01 0.0000000000000000e+00 0.0000000000000000e+00 0.0000000000000000e+00 0.0000000000000000e+00  2.7901733632349835e+01 -4.9006570577961539e-01 0.0000000000000000e+00 -4.9006570577961539e-01 2.9778140639165091e+01 0.0000000000000000e+00 0.0000000000000000e+00 0.0000000000000000e+00 0.0000000000000000e+00  4.7319786728881610e+01 -7.1105776017237803e+00 0.0000000000000000e+00 -7.1105776017237803e+00 1.2207344956272310e+01 0.0000000000000000e+00 0.0000000000000000e+00 0.0000000000000000e+00 0.0000000000000000e+00  5.3752481013171241e+01 -2.4220774430043871e+01 0.0000000000000000e+00 -2.4220774430043871e+01 -1.0091005556832439e+01 0.0000000000000000e+00 0.0000000000000000e+00 0.0000000000000000e+00 0.0000000000000000e+00  4.9790962278935382e+01 -1.1934543218408127e+01 0.0000000000000000e+00 -1.1934543218408127e+01 5.4724449976994531e+00 0.0000000000000000e+00 0.0000000000000000e+00 0.0000000000000000e+00 0.0000000000000000e+00  3.0152167762486823e+01 1.3141030522161708e+01 0.0000000000000000e+00 1.3141030522161708e+01 1.2386944367191976e+01 0.0000000000000000e+00 0.0000000000000000e+00 0.0000000000000000e+00 0.0000000000000000e+00  3.2576099021710974e+01 4.0953563061021853e+01 0.0000000000000000e+00 4.0953563061021853e+01 9.2657193959502777e+00 0.0000000000000000e+00 0.0000000000000000e+00 0.0000000000000000e+00 0.0000000000000000e+00  2.2948626354572038e+01 2.1114481905165384e+01 0.0000000000000000e+00 2.1114481905165384e+01 2.2597406320221172e+01 0.0000000000000000e+00 0.0000000000000000e+00 0.0000000000000000e+00 0.0000000000000000e+00  -8.9911341594460250e+00 -2.3385490219998597e+00 0.0000000000000000e+00 -2.3385490219998597e+00 5.7382541533542735e+01 0.0000000000000000e+00 0.0000000000000000e+00 0.0000000000000000e+00 0.0000000000000000e+00  -2.4610953269100531e+01 -7.0599535085330967e-01 0.0000000000000000e+00 -7.0599535085330967e-01 7.6766214514098166e+01 0.0000000000000000e+00 0.0000000000000000e+00 0.0000000000000000e+00 0.0000000000000000e+00  -3.5911986230443032e+00 1.4149198735080804e+00 0.0000000000000000e+00 1.4149198735080804e+00 4.7264371782791784e+01 0.0000000000000000e+00 0.0000000000000000e+00 0.0000000000000000e+00 0.0000000000000000e+00  2.2016061788879274e+01 -2.5441224616086591e+00 0.0000000000000000e+00 -2.5441224616086591e+00 2.2195194619542168e+01 0.0000000000000000e+00 0.0000000000000000e+00 0.0000000000000000e+00 0.0000000000000000e+00  2.4085258964503218e+01 -8.7591984736702411e-01 0.0000000000000000e+00 -8.7591984736702411e-01 2.1791012496678817e+01 0.0000000000000000e+00 0.0000000000000000e+00 0.0000000000000000e+00 0.0000000000000000e+00  4.0814132878389863e+01 3.2612373641798675e+00 0.0000000000000000e+00 3.2612373641798675e+00 1.0419231468856383e+01 0.0000000000000000e+00 0.0000000000000000e+00 0.0000000000000000e+00 0.0000000000000000e+00  4.9319020310029032e+01 5.8038965843862371e+00 0.0000000000000000e+00 5.8038965843862371e+00 -8.8565489387414320e-01 0.0000000000000000e+00 0.0000000000000000e+00 0.0000000000000000e+00 0.0000000000000000e+00  1.1872118912709455e+01 1.8746660399581172e+00 0.0000000000000000e+00 1.8746660399581172e+00 2.5696615404950442e+01 0.0000000000000000e+00 0.0000000000000000e+00 0.0000000000000000e+00 0.0000000000000000e+00  -6.6355071491872852e+00 3.7537501987300622e+01 0.0000000000000000e+00 3.7537501987300622e+01 4.6495467279868308e+01 0.0000000000000000e+00 0.0000000000000000e+00 0.0000000000000000e+00 0.0000000000000000e+00  1.6537003768273242e+00 3.2784571179989626e+01 0.0000000000000000e+00 3.2784571179989626e+01 4.4772988640045234e+01 0.0000000000000000e+00 0.0000000000000000e+00 0.0000000000000000e+00 0.0000000000000000e+00  3.5741299843232408e+00 -1.1498873907782960e+01 0.0000000000000000e+00 -1.1498873907782960e+01 4.1567564193890327e+01 0.0000000000000000e+00 0.0000000000000000e+00 0.0000000000000000e+00 0.0000000000000000e+00  3.0996892489713797e+00 -2.0977842859527311e+01 0.0000000000000000e+00 -2.0977842859527311e+01 4.2454881213726708e+01 0.0000000000000000e+00 0.0000000000000000e+00 0.0000000000000000e+00 0.0000000000000000e+00  1.9409929023546979e+01 -1.4838186568835928e+01 0.0000000000000000e+00 -1.4838186568835928e+01 2.5754702889523330e+01 0.0000000000000000e+00 0.0000000000000000e+00 0.0000000000000000e+00 0.0000000000000000e+00  3.5573770603516813e+01 -5.9474337808160724e+00 0.0000000000000000e+00 -5.9474337808160724e+00 8.8674017168289900e+00 0.0000000000000000e+00 0.0000000000000000e+00 0.0000000000000000e+00 0.0000000000000000e+00  4.5571533605195697e+01 1.9809788287642563e-01 0.0000000000000000e+00 1.9809788287642563e-01 1.4209525757370511e+00 0.0000000000000000e+00 0.0000000000000000e+00 0.0000000000000000e+00 0.0000000000000000e+00  2.2358527697144282e+01 1.6273928441779293e+00 0.0000000000000000e+00 1.6273928441779293e+00 2.1071638914190778e+01 0.0000000000000000e+00 0.0000000000000000e+00 0.0000000000000000e+00 0.0000000000000000e+00  1.0833124319808977e+01 4.1149248524732418e-01 0.0000000000000000e+00 4.1149248524732418e-01 2.7419804677167324e+01 0.0000000000000000e+00 0.0000000000000000e+00 0.0000000000000000e+00 0.0000000000000000e+00  -5.6128797634390128e+00 -1.0385747921351454e+00 0.0000000000000000e+00 -1.0385747921351454e+00 4.6983423162508387e+01 0.0000000000000000e+00 0.0000000000000000e+00 0.0000000000000000e+00 0.0000000000000000e+00  -2.0094877670989881e+01 1.4536160368606048e+01 0.0000000000000000e+00 1.4536160368606048e+01 7.9202350074821183e+01 0.0000000000000000e+00 0.0000000000000000e+00 0.0000000000000000e+00 0.0000000000000000e+00  1.9136829075301682e+00 1.1661118000236867e+01 0.0000000000000000e+00 1.1661118000236867e+01 5.0718701500356204e+01 0.0000000000000000e+00 0.0000000000000000e+00 0.0000000000000000e+00 0.0000000000000000e+00  2.0191447435981384e+01 -1.4857493165009322e+01 0.0000000000000000e+00 -1.4857493165009322e+01 2.7859259616629167e+01 0.0000000000000000e+00 0.0000000000000000e+00 0.0000000000000000e+00 0.0000000000000000e+00  1.8205345485047960e+01 -4.1483611381609158e+01 0.0000000000000000e+00 -4.1483611381609158e+01 3.9713573854666624e+00 0.0000000000000000e+00 0.0000000000000000e+00 0.0000000000000000e+00 0.0000000000000000e+00  1.1014053305848641e+01 -3.0493324337310379e+00 0.0000000000000000e+00 -3.0493324337310379e+00 1.3731807066960121e+01 0.0000000000000000e+00 0.0000000000000000e+00 0.0000000000000000e+00 0.0000000000000000e+00  4.5018838885586931e+01 2.5823528522082196e+01 0.0000000000000000e+00 2.5823528522082196e+01 -1.5521233285785730e+01 0.0000000000000000e+00 0.0000000000000000e+00 0.0000000000000000e+00 0.0000000000000000e+00  5.2105268126263560e+01 2.3303010248830006e+01 0.0000000000000000e+00 2.3303010248830006e+01 -1.9850969118976476e+00 0.0000000000000000e+00 0.0000000000000000e+00 0.0000000000000000e+00 0.0000000000000000e+00  2.0239425348648460e+01 8.7357754245949071e+00 0.0000000000000000e+00 8.7357754245949071e+00 2.5671918092580629e+01 0.0000000000000000e+00 0.0000000000000000e+00 0.0000000000000000e+00 0.0000000000000000e+00  -1.0387246297070199e+01 2.3094962716125874e+01 0.0000000000000000e+00 2.3094962716125874e+01 5.8481068832230925e+01 0.0000000000000000e+00 0.0000000000000000e+00 0.0000000000000000e+00 0.0000000000000000e+00  -8.9476302974128608e+00 3.0906234792262019e+01 0.0000000000000000e+00 3.0906234792262019e+01 5.5127729608482589e+01 0.0000000000000000e+00 0.0000000000000000e+00 0.0000000000000000e+00 0.0000000000000000e+00  3.2741233810319543e+00 4.6837356506106183e+01 0.0000000000000000e+00 4.6837356506106183e+01 4.1343636499563615e+01 0.0000000000000000e+00 0.0000000000000000e+00 0.0000000000000000e+00 0.0000000000000000e+00  1.5571016456178755e+01 -1.1232811970169390e+01 0.0000000000000000e+00 -1.1232811970169390e+01 3.5289968292311109e+01 0.0000000000000000e+00 0.0000000000000000e+00 0.0000000000000000e+00 0.0000000000000000e+00  2.1638858523993115e+01 2.7853740575302915e-01 0.0000000000000000e+00 2.7853740575302915e-01 2.0917977794132131e+01 0.0000000000000000e+00 0.0000000000000000e+00 0.0000000000000000e+00 0.0000000000000000e+00  3.0661256295922804e+01 1.1081167236011057e+01 0.0000000000000000e+00 1.1081167236011057e+01 1.6589046056517759e+01 0.0000000000000000e+00 0.0000000000000000e+00 0.0000000000000000e+00 0.0000000000000000e+00  2.3692022667780652e+01 6.1110946498561693e+00 0.0000000000000000e+00 6.1110946498561693e+00 2.1729759732430285e+01 0.0000000000000000e+00 0.0000000000000000e+00 0.0000000000000000e+00 0.0000000000000000e+00  3.5016309247392186e+00 -4.2654104019342611e+00 0.0000000000000000e+00 -4.2654104019342611e+00 3.7683042136950768e+01 0.0000000000000000e+00 0.0000000000000000e+00 0.0000000000000000e+00 0.0000000000000000e+00  -2.6140147928207977e+01 3.0733091299125603e+00 0.0000000000000000e+00 3.0733091299125603e+00 5.7734021639981471e+01 0.0000000000000000e+00 0.0000000000000000e+00 0.0000000000000000e+00 0.0000000000000000e+00  -8.1809817650275836e+00 9.3846398272088489e+00 0.0000000000000000e+00 9.3846398272088489e+00 5.3661681394148431e+01 0.0000000000000000e+00 0.0000000000000000e+00 0.0000000000000000e+00 0.0000000000000000e+00  1.6727064016901949e+01 -1.5897919362175250e+01 0.0000000000000000e+00 -1.5897919362175250e+01 2.8794712326935034e+01 0.0000000000000000e+00 0.0000000000000000e+00 0.0000000000000000e+00 0.0000000000000000e+00  1.9387120964228959e+01 -2.8581884307345053e+01 0.0000000000000000e+00 -2.8581884307345053e+01 1.3459134388280507e+01 0.0000000000000000e+00 0.0000000000000000e+00 0.0000000000000000e+00 0.0000000000000000e+00  3.5453677950557534e+01 -1.4126594327174182e+01 0.0000000000000000e+00 -1.4126594327174182e+01 3.2861856241439500e+00 0.0000000000000000e+00 0.0000000000000000e+00 0.0000000000000000e+00 0.0000000000000000e+00  4.2638702683981101e+01 1.7740057824417729e+01 0.0000000000000000e+00 1.7740057824417729e+01 -4.2144182349626949e+00 0.0000000000000000e+00 0.0000000000000000e+00 0.0000000000000000e+00 0.0000000000000000e+00  6.2522654568781114e+01 2.6138244729462613e+01 0.0000000000000000e+00 2.6138244729462613e+01 -1.6221622907004281e+01 0.0000000000000000e+00 0.0000000000000000e+00 0.0000000000000000e+00 0.0000000000000000e+00  4.1517824935291721e+01 6.2186717874917834e+00 0.0000000000000000e+00 6.2186717874917834e+00 4.6275971869873507e+00 0.0000000000000000e+00 0.0000000000000000e+00 0.0000000000000000e+00 0.0000000000000000e+00  2.2406090726987948e+01 1.1134884995973691e+00 0.0000000000000000e+00 1.1134884995973691e+00 2.3233198235137824e+01 0.0000000000000000e+00 0.0000000000000000e+00 0.0000000000000000e+00 0.0000000000000000e+00  5.1091236905150668e+00 3.6857763202260161e+00 0.0000000000000000e+00 3.6857763202260161e+00 3.6189893111278003e+01 0.0000000000000000e+00 0.0000000000000000e+00 0.0000000000000000e+00 0.0000000000000000e+00  3.3463632609479831e+01 -2.6508516768531337e+01 0.0000000000000000e+00 -2.6508516768531337e+01 1.7467695587102124e+01 0.0000000000000000e+00 0.0000000000000000e+00 0.0000000000000000e+00 0.0000000000000000e+00  2.0726214678360250e+01 -4.0049758919281501e+01 0.0000000000000000e+00 -4.0049758919281501e+01 5.7073772998235421e+00 0.0000000000000000e+00 0.0000000000000000e+00 0.0000000000000000e+00 0.0000000000000000e+00  1.9216457173457659e+01 -8.0173757377645050e+00 0.0000000000000000e+00 -8.0173757377645050e+00 4.5269417831640784e+00 0.0000000000000000e+00 0.0000000000000000e+00 0.0000000000000000e+00 0.0000000000000000e+00  3.7655122860065632e+01 1.5134686467771491e+01 0.0000000000000000e+00 1.5134686467771491e+01 -9.6714947749627669e+00 0.0000000000000000e+00 0.0000000000000000e+00 0.0000000000000000e+00 0.0000000000000000e+00  4.1288093378182730e+01 1.1790219495382335e+01 0.0000000000000000e+00 1.1790219495382335e+01 -8.8365362181417524e+00 0.0000000000000000e+00 0.0000000000000000e+00 0.0000000000000000e+00 0.0000000000000000e+00  4.0359241294154586e+01 3.3447164863204235e+00 0.0000000000000000e+00 3.3447164863204235e+00 6.4328112916233637e+00 0.0000000000000000e+00 0.0000000000000000e+00 0.0000000000000000e+00 0.0000000000000000e+00  2.2934517740509715e+01 1.4564536285135672e+00 0.0000000000000000e+00 1.4564536285135672e+00 2.1648853408551201e+01 0.0000000000000000e+00 0.0000000000000000e+00 0.0000000000000000e+00 0.0000000000000000e+00  2.3576531495577893e+01 5.1646976406235501e-01 0.0000000000000000e+00 5.1646976406235501e-01 2.2963586110916200e+01 0.0000000000000000e+00 0.0000000000000000e+00 0.0000000000000000e+00 0.0000000000000000e+00  2.3091248313459261e+01 -1.4330725504754485e+00 0.0000000000000000e+00 -1.4330725504754485e+00 2.2775846090006979e+01 0.0000000000000000e+00 0.0000000000000000e+00 0.0000000000000000e+00 0.0000000000000000e+00  1.7238782652944348e+01 -4.1374047505646656e+00 0.0000000000000000e+00 -4.1374047505646656e+00 2.3080237023077320e+01 0.0000000000000000e+00 0.0000000000000000e+00 0.0000000000000000e+00 0.0000000000000000e+00  3.6301365984159602e+01 -1.1273704088298732e+01 0.0000000000000000e+00 -1.1273704088298732e+01 -6.1837574769934278e+00 0.0000000000000000e+00 0.0000000000000000e+00 0.0000000000000000e+00 0.0000000000000000e+00  4.9425728675462665e+01 -3.2241874042719580e+01 0.0000000000000000e+00 -3.2241874042719580e+01 -2.0253909171481773e+01 0.0000000000000000e+00 0.0000000000000000e+00 0.0000000000000000e+00 0.0000000000000000e+00  3.6665326559550927e+01 -2.4368580635098798e+01 0.0000000000000000e+00 -2.4368580635098798e+01 -1.6031827283716666e+01 0.0000000000000000e+00 0.0000000000000000e+00 0.0000000000000000e+00 0.0000000000000000e+00  2.1703094353841752e+01 7.0496344474038999e+00 0.0000000000000000e+00 7.0496344474038999e+00 2.2850468010428142e+00 0.0000000000000000e+00 0.0000000000000000e+00 0.0000000000000000e+00 0.0000000000000000e+00  2.2769652136375111e+01 2.2955333799457691e+01 0.0000000000000000e+00 2.2955333799457691e+01 1.4372295041630668e+01 0.0000000000000000e+00 0.0000000000000000e+00 0.0000000000000000e+00 0.0000000000000000e+00  -5.1460881006977832e-01 3.5269789781664007e-01 0.0000000000000000e+00 3.5269789781664007e-01 2.4227277499198024e+01 0.0000000000000000e+00 0.0000000000000000e+00 0.0000000000000000e+00 0.0000000000000000e+00  -2.3555186320104848e+01 -1.7613986878340125e+01 0.0000000000000000e+00 -1.7613986878340125e+01 4.8427890478494817e+01 0.0000000000000000e+00 0.0000000000000000e+00 0.0000000000000000e+00 0.0000000000000000e+00  -2.0656685507846021e+01 -2.5941737188140237e+01 0.0000000000000000e+00 -2.5941737188140237e+01 3.2542780529577264e+01 0.0000000000000000e+00 0.0000000000000000e+00 0.0000000000000000e+00 0.0000000000000000e+00  9.9319444702576813e+00 4.3611954314730603e+00 0.0000000000000000e+00 4.3611954314730603e+00 2.3816842261257161e+01 0.0000000000000000e+00 0.0000000000000000e+00 0.0000000000000000e+00 0.0000000000000000e+00  4.3700623270023691e+01 -2.4153003410575899e+01 0.0000000000000000e+00 -2.4153003410575899e+01 -1.2257163195815110e+01 0.0000000000000000e+00 0.0000000000000000e+00 0.0000000000000000e+00 0.0000000000000000e+00  4.4934692618219756e+01 -2.9599480579318968e+01 0.0000000000000000e+00 -2.9599480579318968e+01 -2.6877961294344491e+01 0.0000000000000000e+00 0.0000000000000000e+00 0.0000000000000000e+00 0.0000000000000000e+00  3.6750447152660975e+01 -2.2592056305932527e+01 0.0000000000000000e+00 -2.2592056305932527e+01 -1.0801497394314072e+01 0.0000000000000000e+00 0.0000000000000000e+00 0.0000000000000000e+00 0.0000000000000000e+00  7.8116496942745730e+00 8.6958540567558518e-01 0.0000000000000000e+00 8.6958540567558518e-01 7.6242359713651879e+00 0.0000000000000000e+00 0.0000000000000000e+00 0.0000000000000000e+00 0.0000000000000000e+00  -5.4701919629124269e+00 -1.1839689654415258e+01 0.0000000000000000e+00 -1.1839689654415258e+01 2.9683959988718783e+01 0.0000000000000000e+00 0.0000000000000000e+00 0.0000000000000000e+00 0.0000000000000000e+00  -8.1948316129243878e+01 -2.9758160728925624e+01 0.0000000000000000e+00 -2.9758160728925624e+01 9.1179430878794477e+01 0.0000000000000000e+00 0.0000000000000000e+00 0.0000000000000000e+00 0.0000000000000000e+00  -9.0054607220923458e+01 -1.7866618044858971e+01 0.0000000000000000e+00 -1.7866618044858971e+01 1.0118273466456773e+02 0.0000000000000000e+00 0.0000000000000000e+00 0.0000000000000000e+00 0.0000000000000000e+00  -7.1644624428514874e+01 7.1105976995802722e+00 0.0000000000000000e+00 7.1105976995802722e+00 8.3202644400696087e+01 0.0000000000000000e+00 0.0000000000000000e+00 0.0000000000000000e+00 0.0000000000000000e+00  -4.0580464350550905e+01 3.5931912587883993e+01 0.0000000000000000e+00 3.5931912587883993e+01 4.6968303989590950e+01 0.0000000000000000e+00 0.0000000000000000e+00 0.0000000000000000e+00 0.0000000000000000e+00  -5.8055631251132285e+00 1.8778072036752487e+01 0.0000000000000000e+00 1.8778072036752487e+01 1.3849281989541915e+01 0.0000000000000000e+00 0.0000000000000000e+00 0.0000000000000000e+00 0.0000000000000000e+00  -7.6386090592080214e-01 5.6675288062772582e+00 0.0000000000000000e+00 5.6675288062772582e+00 1.3639878839592550e+01 0.0000000000000000e+00 0.0000000000000000e+00 0.0000000000000000e+00 0.0000000000000000e+00  -9.4471889373961346e+01 5.9135084762524748e+01 0.0000000000000000e+00 5.9135084762524748e+01 -2.3431700342126128e+01 0.0000000000000000e+00 0.0000000000000000e+00 0.0000000000000000e+00 0.0000000000000000e+00  1.5686486779233863e+02 9.3384021046743243e+01 0.0000000000000000e+00 9.3384021046743243e+01 3.1079176423992795e+01 0.0000000000000000e+00 0.0000000000000000e+00 0.0000000000000000e+00 0.0000000000000000e+00  1.0410301404203665e+01 4.3243226490864942e+01 0.0000000000000000e+00 4.3243226490864942e+01 7.3916724864424497e+00 0.0000000000000000e+00 0.0000000000000000e+00 0.0000000000000000e+00 0.0000000000000000e+00  2.4691414325048264e+01 -9.9374781457982730e-01 0.0000000000000000e+00 -9.9374781457982730e-01 2.4862904731870238e+01 0.0000000000000000e+00 0.0000000000000000e+00 0.0000000000000000e+00 0.0000000000000000e+00  3.3738061601148296e+01 2.7834607139822776e+00 0.0000000000000000e+00 2.7834607139822776e+00 1.4305847543546010e+01 0.0000000000000000e+00 0.0000000000000000e+00 0.0000000000000000e+00 0.0000000000000000e+00  -1.9981186039072949e+01 2.4574519216439095e+00 0.0000000000000000e+00 2.4574519216439095e+00 -2.0833897883319715e+01 0.0000000000000000e+00 0.0000000000000000e+00 0.0000000000000000e+00 0.0000000000000000e+00  5.7901823323487678e+00 -9.1391975872658875e+01 0.0000000000000000e+00 -9.1391975872658875e+01 -3.9240416107084739e+00 0.0000000000000000e+00 0.0000000000000000e+00 0.0000000000000000e+00 0.0000000000000000e+00  1.5295272533951891e+01 4.5433077125845735e+01 0.0000000000000000e+00 4.5433077125845735e+01 2.3126002261054381e+01 0.0000000000000000e+00 0.0000000000000000e+00 0.0000000000000000e+00 0.0000000000000000e+00  4.5514115854233410e+01 -7.2221666968128147e+01 0.0000000000000000e+00 -7.2221666968128147e+01 1.0674618197341221e+00 0.0000000000000000e+00 0.0000000000000000e+00 0.0000000000000000e+00 0.0000000000000000e+00  2.0763759078643020e+01 4.4074770575386729e+01 0.0000000000000000e+00 4.4074770575386729e+01 2.4700948875713095e+01 0.0000000000000000e+00 0.0000000000000000e+00 0.0000000000000000e+00 0.0000000000000000e+00  1.7349471079405632e+01 1.3149591013260043e+01 0.0000000000000000e+00 1.3149591013260043e+01 2.9635030461984620e+01 0.0000000000000000e+00 0.0000000000000000e+00 0.0000000000000000e+00 0.0000000000000000e+00  3.0171512296930381e+01 -9.0703574675878185e-01 0.0000000000000000e+00 -9.0703574675878185e-01 2.7151609994224302e+01 0.0000000000000000e+00 0.0000000000000000e+00 0.0000000000000000e+00 0.0000000000000000e+00  -1.78