<?xml version="1.0"?>
<VTKFile type="UnstructuredGrid"  version="0.1"  >
<UnstructuredGrid>
<Piece  NumberOfPoints="4961" NumberOfCells="9546">
<Points>
<DataArray  type="Float64"  NumberOfComponents="3"  format="ascii">0 1.5 0  -0 0.09117947244826481 0  0.0220162612375116 0.1293127555043441 0  0.05279126660105127 0.1634918616050268 0  0.09000000000000007 0.1905255888325765 0  0.1320162612375116 0.2092324335849338 0  0.1770037380811163 0.2187948169810202 0  0.2229962619188838 0.2187948169810201 0  0.2679837387624884 0.2092324335849338 0  0.3100000000000001 0.1905255888325765 0  0.3472087333989489 0.1634918616050267 0  0.3779837387624885 0.1293127555043441 0  0.4009800006813722 0.08948206147667603 0  0.4052662851173224 0.07629023443250138 0  0.4200599930048062 0.1082663100071745 0  0.4475409466961425 0.1444168863592189 0  0.4821507162738997 0.173814689612947 0  0.522270987378618 0.1950851111615262 0  0.5660257807239194 0.2072335697337205 0  0.6113691708029376 0.209692016908736 0  0.6561809510911363 0.2023454984290368 0  0.6983657725469559 0.1855375293336648 0  0.7359511198041838 0.1600540315768036 0  0.7671795437981852 0.1270865851906907 0  0.7895690044779959 0.089875012069959 0  0.7989002782867461 0.1116194513821486 0  0.825485631780658 0.1498156710261111 0  0.8592156240140376 0.1818784194956707 0  0.8987093451417441 0.2064950441012706 0  0.9423499175804944 0.222657737339227 0  0.9883506911670961 0.2297047966493422 0  1.034828388826053 0.2273477145954656 0  1.079880208154309 0.2156829903938285 0  1.121661722375201 0.1951881792237927 0  1.158462391387408 0.1667023410626976 0  1.188775591477674 0.1313916894718022 0  1.211360296672653 0.09070184667606328 0  1.225291886488074 0.04629865962039181 0  1.23 0 0  1.38 0 0  1.384807527838563 0.04574057197990705 0  1.399019999318628 0.08948206147667601 0  1.422016261237512 0.1293127555043441 0  1.452791266601051 0.1634918616050268 0  1.49 0.1905255888325765 0  1.532016261237512 0.2092324335849338 0  1.577003738081116 0.2187948169810202 0  1.622996261918884 0.2187948169810201 0  1.667983738762489 0.2092324335849338 0  1.71 0.1905255888325765 0  1.747208733398949 0.1634918616050267 0  1.763158635297163 0.1457777009465727 0  1.8 0.1732050807568878 0  1.842639353457782 0.1915979024630978 0  1.888371034217905 0.1996616316542537 0  1.934729635533386 0.1969615506024416 0  1.979215953207831 0.1836432213760548 0  2.019431718340557 0.1604246385510087 0  2.053208888623796 0.1285575219373079 0  2.078726528064682 0.08975983604009244 0  2.089496128668151 0.06017060156551748 0  2.099019999318628 0.08948206147667601 0  2.122016261237512 0.1293127555043441 0  2.152791266601051 0.1634918616050268 0  2.19 0.1905255888325765 0  2.232016261237511 0.2092324335849338 0  2.277003738081116 0.2187948169810202 0  2.322996261918884 0.2187948169810201 0  2.367983738762488 0.2092324335849338 0  2.41 0.1905255888325765 0  2.447208733398949 0.1634918616050267 0  2.457084733682728 0.1525234520934048 0  2.4821507162739 0.173814689612947 0  2.522270987378618 0.1950851111615262 0  2.56602578072392 0.2072335697337205 0  2.611369170802938 0.209692016908736 0  2.656180951091136 0.2023454984290368 0  2.698365772546956 0.1855375293336648 0  2.735951119804184 0.1600540315768036 0  2.767179543798185 0.1270865851906907 0  2.790590838130901 0.08817671132765556 0  2.805090316699118 0.04514379244431505 0  2.81 0 0  3 0 0  3 1.5 0  0 0.7956998320486358 0  0.4110904441558352 0.08887894789033324 0  0.7773699356874649 0.1101500221202465 0  1.5 1.5 0  3 0.75 0  0 0.4434396522484503 0  3 0.375 0  0 0.2673095623483576 0  0 0.1792445173983112 0  0 0.135211994923288 0  2.25 1.5 0  0.75 1.5 0  1.807676614587897 0.8837271123414687 0  1.04553857344641 0.8979441530181422 0  2.403437242208115 0.8132876225209357 0  0.5070864579510219 1.00719278150819 0  3 1.125 0  1.338035405010484 0.5883821138073757 0  2.625 1.5 0  0.3818338799394321 0.6099209340690734 0  2.067950237167102 0.5767429460037152 0  1.428016626639016 0.9663701540160734 0  1.875 1.5 0  2.136976695697423 1.114248364898298 0  1.125 1.5 0  0.375 1.5 0  0.7837785056474272 0.5924157926009261 0  2.621900904970652 1.121900904970652 0  0 1.147849916024318 0  1.717071692555337 0.550779009763445 0  1.678619011272733 1.204235418149387 0  0.8184015011321764 1.160011833453945 0  2.690771901920515 0.5625 0  1.191553529739931 1.18494431212041 0  2.361743998733192 0.516240498397431 0  2.727335050325185 0.8509414958930873 0  1.061120194703906 0.6196995992969355 0  0.269244960297408 0.8637990218922467 0  0.7609530458041533 0.8768664729047809 0  0.5625 1.286150286226427 0  0.2788879438654684 1.226607136693913 0  2.077535333020466 0.8486969269297693 0  2.4375 1.312474598220077 0  2.809426100237187 1.309426100237187 0  1.544358239139601 0.7389704993474611 0  1.434454912167138 1.210530519498476 0  2.380335199591509 1.061271835208851 0  1.926191456889599 1.252931474193008 0  0.5486378118088926 0.7757115443742588 0  0.5753328044103648 0.454959652232189 0  1.281333603460298 0.3634530521588742 0  0.9959109141311655 1.308173392725312 0  1.507364216928931 0.4358170942512657 0  1.21812632380771 0.7680504611018459 0  0 0.6195697421485431 0  1.3125 1.5 0  0.2892140007400885 0.4197188740688536 0  1.924109453869066 0.4139433366638808 0  0.9329747065756857 0.4375180073994652 0  2.243231692495831 0.684324343130167 0  2.0625 1.5 0  2.124178136191116 0.3821183579116478 0  1.923364695744858 0.7179848099571996 0  2.233034933769442 1.295537230099697 0  1.961794510294921 1.014032929092127 0  0.9133498533613748 0.7509830595402348 0  0 0.9717748740364769 0  0.1875 1.5 0  0 1.323924958012159 0  1.227107007305785 0.9862124750220198 0  1.616617139708145 0.9194004298184476 0  2.811636610329211 1.039737091854792 0  0.1901803394569171 0.5855957240372172 0  2.511165533602297 0.6467174115519351 0  2.536466024168012 0.9507486861843897 0  0.1866521719860137 1.047526440960541 0  2.74946330463778 0.3751246081287475 0  2.543804048982231 0.4145708923164018 0  0.9375 1.5 0  2.4375 1.5 0  0.5625 1.5 0  3 0.5625 0  1.6875 1.5 0  3 0.1875 0  3 0.9375 0  3 1.3125 0  2.8125 1.5 0  1.010044310702206 1.096645863828023 0  2.623488142128434 1.314011651358178 0  2.229558763998408 0.9540962470011799 0  2.845385950960257 0.65625 0  0.7525337220569124 0.4130199536593896 0  1.10537722367743 0.3921278680533664 0  0.6842290971134891 1.039833940778862 0  0.7386374643770518 1.32083913541365 0  1.553387564684306 1.08522930563603 0  1.788789291239656 1.06235950910253 0  1.559809215736361 1.334301807720895 0  1.750410104758408 0.7205088288478614 0  1.672011031024921 0.3842266692686779 0  1.77867146649739 1.349246747510312 0  1.21875 1.355246746101045 0  0.8723426006985372 1.001666865795386 0  1.380631426145093 0.7466576340788873 0  0.4259246536592668 0.3283409344703117 0  0.3444360723462823 1.008028502358495 0  0.6161474109915657 0.6198433096250735 0  0.4265019066463465 1.151756411601508 0  1.403034104827827 1.367717620859348 0  2.874684993382777 0.28125 0  2.874778249279309 0.46875 0  2.071314369495706 1.334001876948522 0  2.3 0.3730371416193449 0  1.322682484320052 1.105857305698365 0  1.563127563616163 0.5828461597844022 0  2.559040610931566 0.7958017532902765 0  1.213306121383676 0.5002133671656324 0  1.916121887065227 0.5659454196943852 0  2.207677378621353 0.5116761937353096 0  0.1257028237453774 1.235887437018238 0  0.7203062975228639 0.7304636720840537 0  0.3921145397364951 0.7663844669080319 0  2.70905347612285 0.7067207479465436 0  2.87968965213058 0.84375 0  0.1396742765227637 0.3714373577111671 0  0.1209675020841686 0.8837373530425563 0  0.1396318055029159 0.7309656161457982 0  0.4039274761094683 1.336239793581983 0  2.676470777350768 0.9877614171414461 0  0.2098223519481562 1.355491059017463 0  0.6161949108813681 0.9073080762684851 0  0.6728981805985057 1.187471545812503 0  0.4313243650936899 0.473428383024358 0  1.317579957488075 0.8752219089473544 0  1.05247475519209 0.7587740171666131 0  0.9218858728134471 0.6117854803862035 0  2.343741823603972 1.201704901656183 0  2.483180588903391 1.163054990844907 0  1.336494261441537 0.237261632693729 0  2.096334636915305 0.983917300563715 0  2.059942810014369 0.7131710752499992 0  1.940957218750955 0.8535106616369695 0  0.2735884026449029 0.6956028768230409 0  2.3791553829517 0.6794620539851567 0  2.443566922502795 0.3224565874575337 0  2.21140571429892 0.8179437442036444 0  2.863880028189143 1.175018869261394 0  1.212122991296861 0.6341965806889284 0  0.8702381850023826 1.37471255674248 0  0.4252003220264352 0.89843828480276 0  2.714126143737636 1.217200861470203 0  2.34375 1.406237299110039 0  2.71875 1.406237608026668 0  2.903224894283775 1.403224894283775 0  2.53125 1.5 0  1.444637821860123 0.3169971434781329 0  1.307097209138961 1.253815337580837 0  1.806074818262501 0.3310941379078186 0  0.09375 1.5 0  1.96875 1.5 0  1.467196512253796 0.8429542418758076 0  0.7811182225539175 0.2860230046382459 0  0.8880470276332622 0.8755399020562793 0  2.004554624687214 1.142507703833496 0  1.901808674873915 1.376717053991818 0  1.80956117606876 1.192202387775541 0  0.65625 1.5 0  2.256163989601168 1.076312782066936 0  2.35728348455407 0.9340561611988477 0  0.5508073343087652 1.161974855816299 0  1.822201850254356 0.484799098822588 0  0.6415475671733072 0.3394071993736185 0  0.6854011703162045 0.5171310296285601 0  2.010601404748645 0.3128962050875828 0  1.458109478391155 0.6494112449225909 0  1.556659288882675 1.21212759481645 0  2.15625 1.5 0  1.102952541966123 1.010721102324488 0  3 0.09375 0  2.905 0 0  1.698833571793874 0.8302602504158462 0  0.1128136071602732 0.4908067814983783 0  1.375215724596343 0.4593979824254396 0  1.667188501011557 1.033651962891267 0  0.5152717989473731 0.5573202673988191 0  0.4756630816937197 0.6823252715484635 0  2.485944291803511 0.5248037876852512 0  0.609375 1.393075143113214 0  1.657554629504312 0.6506084627130724 0  1.180547956106694 0.2992004577305749 0  1.040994897946075 0.4976964206623483 0  2.883588023402782 0.1625217501240843 0  1.437965738677728 1.09476840787
[...]
<PointData  Tensors="f_644"> 
<DataArray  type="Float64"  Name="f_644"  NumberOfComponents="9" format="ascii">-6.1832847491534562e+00 5.2343295601276747e+00 0.0000000000000000e+00 5.2343295601276747e+00 -1.5023563080797356e+01 0.0000000000000000e+00 0.0000000000000000e+00 0.0000000000000000e+00 0.0000000000000000e+00  2.9595430419802057e+01 -4.4363671260473214e-01 0.0000000000000000e+00 -4.4363671260473214e-01 3.0772360219515186e+01 0.0000000000000000e+00 0.0000000000000000e+00 0.0000000000000000e+00 0.0000000000000000e+00  2.7501882588177480e+01 -8.2159652680388395e-01 0.0000000000000000e+00 -8.2159652680388395e-01 2.8435299339630610e+01 0.0000000000000000e+00 0.0000000000000000e+00 0.0000000000000000e+00 0.0000000000000000e+00  5.6030996161389034e+01 -1.1085337307484604e+01 0.0000000000000000e+00 -1.1085337307484604e+01 3.6412481837945911e+00 0.0000000000000000e+00 0.0000000000000000e+00 0.0000000000000000e+00 0.0000000000000000e+00  7.1585044506671451e+01 -3.9152824687880845e+01 0.0000000000000000e+00 -3.9152824687880845e+01 -2.9354372413115730e+01 0.0000000000000000e+00 0.0000000000000000e+00 0.0000000000000000e+00 0.0000000000000000e+00  6.2615362451026421e+01 -2.2547572125380000e+01 0.0000000000000000e+00 -2.2547572125380000e+01 -5.2546850873475170e+00 0.0000000000000000e+00 0.0000000000000000e+00 0.0000000000000000e+00 0.0000000000000000e+00  3.0986956870003272e+01 2.3065959998279634e+01 0.0000000000000000e+00 2.3065959998279634e+01 1.0695739047987223e+01 0.0000000000000000e+00 0.0000000000000000e+00 0.0000000000000000e+00 0.0000000000000000e+00  3.7841002137687418e+01 6.5868104382993380e+01 0.0000000000000000e+00 6.5868104382993380e+01 2.1420281266822552e+00 0.0000000000000000e+00 0.0000000000000000e+00 0.0000000000000000e+00 0.0000000000000000e+00  2.3640602221009171e+01 3.1626207135938518e+01 0.0000000000000000e+00 3.1626207135938518e+01 2.2103494699752545e+01 0.0000000000000000e+00 0.0000000000000000e+00 0.0000000000000000e+00 0.0000000000000000e+00  -2.7340390653736453e+01 -6.5164806058412132e+00 0.0000000000000000e+00 -6.5164806058412132e+00 7.7279543245053887e+01 0.0000000000000000e+00 0.0000000000000000e+00 0.0000000000000000e+00 0.0000000000000000e+00  -5.7822430026142783e+01 -5.3338274683336573e-01 0.0000000000000000e+00 -5.3338274683336573e-01 1.0880207007635472e+02 0.0000000000000000e+00 0.0000000000000000e+00 0.0000000000000000e+00 0.0000000000000000e+00  -2.0607697390478414e+01 3.3399566665198059e+00 0.0000000000000000e+00 3.3399566665198059e+00 6.3280030717500601e+01 0.0000000000000000e+00 0.0000000000000000e+00 0.0000000000000000e+00 0.0000000000000000e+00  2.1437584143731769e+01 -3.2434295133809412e+00 0.0000000000000000e+00 -3.2434295133809412e+00 2.0365093409114476e+01 0.0000000000000000e+00 0.0000000000000000e+00 0.0000000000000000e+00 0.0000000000000000e+00  2.3713451326860081e+01 -8.8980373192595485e-01 0.0000000000000000e+00 -8.8980373192595485e-01 2.1016051072402021e+01 0.0000000000000000e+00 0.0000000000000000e+00 0.0000000000000000e+00 0.0000000000000000e+00  4.7715566888345414e+01 2.7027904740707243e+00 0.0000000000000000e+00 2.7027904740707243e+00 4.3362308424781464e+00 0.0000000000000000e+00 0.0000000000000000e+00 0.0000000000000000e+00 0.0000000000000000e+00  6.3663727480361295e+01 7.6379950932777909e+00 0.0000000000000000e+00 7.6379950932777909e+00 -1.5885958204176148e+01 0.0000000000000000e+00 0.0000000000000000e+00 0.0000000000000000e+00 0.0000000000000000e+00  7.3053038565033095e+00 3.5141252586584169e+00 0.0000000000000000e+00 3.5141252586584169e+00 2.6896504027750183e+01 0.0000000000000000e+00 0.0000000000000000e+00 0.0000000000000000e+00 0.0000000000000000e+00  -2.4476857912179561e+01 5.9705792116520023e+01 0.0000000000000000e+00 5.9705792116520023e+01 6.3065173376671922e+01 0.0000000000000000e+00 0.0000000000000000e+00 0.0000000000000000e+00 0.0000000000000000e+00  -1.2942568658930757e+01 5.3512114437397798e+01 0.0000000000000000e+00 5.3512114437397798e+01 5.8499886901963606e+01 0.0000000000000000e+00 0.0000000000000000e+00 0.0000000000000000e+00 0.0000000000000000e+00  -6.0083212906869754e+00 -1.5361553645528449e+01 0.0000000000000000e+00 -1.5361553645528449e+01 5.1698871469901604e+01 0.0000000000000000e+00 0.0000000000000000e+00 0.0000000000000000e+00 0.0000000000000000e+00  -1.2038421719237686e+01 -3.4813672736717201e+01 0.0000000000000000e+00 -3.4813672736717201e+01 5.4055077518574763e+01 0.0000000000000000e+00 0.0000000000000000e+00 0.0000000000000000e+00 0.0000000000000000e+00  1.5299597598678316e+01 -2.4870374161688446e+01 0.0000000000000000e+00 -2.4870374161688446e+01 3.0649021308601743e+01 0.0000000000000000e+00 0.0000000000000000e+00 0.0000000000000000e+00 0.0000000000000000e+00  4.3198351002595011e+01 -6.7733841496784652e+00 0.0000000000000000e+00 -6.7733841496784652e+00 1.9624869918590120e+00 0.0000000000000000e+00 0.0000000000000000e+00 0.0000000000000000e+00 0.0000000000000000e+00  5.5778762262802829e+01 1.2344930105290498e-01 0.0000000000000000e+00 1.2344930105290498e-01 -9.8831673547789922e+00 0.0000000000000000e+00 0.0000000000000000e+00 0.0000000000000000e+00 0.0000000000000000e+00  2.1855444914820882e+01 2.5339772019698912e+00 0.0000000000000000e+00 2.5339772019698912e+00 2.0251843143673629e+01 0.0000000000000000e+00 0.0000000000000000e+00 0.0000000000000000e+00 0.0000000000000000e+00  6.7978889568737859e+00 8.1258996587618781e-01 0.0000000000000000e+00 8.1258996587618781e-01 3.0123086430917663e+01 0.0000000000000000e+00 0.0000000000000000e+00 0.0000000000000000e+00 0.0000000000000000e+00  -2.4853771738665984e+01 -1.6027154444604237e+00 0.0000000000000000e+00 -1.6027154444604237e+00 6.5676377108843610e+01 0.0000000000000000e+00 0.0000000000000000e+00 0.0000000000000000e+00 0.0000000000000000e+00  -5.2317966853913454e+01 2.1673971966978588e+01 0.0000000000000000e+00 2.1673971966978588e+01 1.1212613572869229e+02 0.0000000000000000e+00 0.0000000000000000e+00 0.0000000000000000e+00 0.0000000000000000e+00  -1.3253463946924583e+01 1.7839429533779679e+01 0.0000000000000000e+00 1.7839429533779679e+01 6.8427846870804871e+01 0.0000000000000000e+00 0.0000000000000000e+00 0.0000000000000000e+00 0.0000000000000000e+00  1.8139909155186348e+01 -2.4974776381865645e+01 0.0000000000000000e+00 -2.4974776381865645e+01 3.1930867197102184e+01 0.0000000000000000e+00 0.0000000000000000e+00 0.0000000000000000e+00 0.0000000000000000e+00  1.9672623288492591e+01 -6.6004240957247262e+01 0.0000000000000000e+00 -6.6004240957247262e+01 -1.3655726483015973e+00 0.0000000000000000e+00 0.0000000000000000e+00 0.0000000000000000e+00 0.0000000000000000e+00  8.0060712331887913e+00 -5.2896390245869487e+00 0.0000000000000000e+00 -5.2896390245869487e+00 1.3743432657354257e+01 0.0000000000000000e+00 0.0000000000000000e+00 0.0000000000000000e+00 0.0000000000000000e+00  6.2860622925813374e+01 4.3611044286130117e+01 0.0000000000000000e+00 4.3611044286130117e+01 -3.5292109125824652e+01 0.0000000000000000e+00 0.0000000000000000e+00 0.0000000000000000e+00 0.0000000000000000e+00  6.8345261989276651e+01 3.7660168095181682e+01 0.0000000000000000e+00 3.7660168095181682e+01 -1.7888941710183222e+01 0.0000000000000000e+00 0.0000000000000000e+00 0.0000000000000000e+00 0.0000000000000000e+00  1.7479571876295399e+01 1.1611651356867835e+01 0.0000000000000000e+00 1.1611651356867835e+01 2.9520545974927572e+01 0.0000000000000000e+00 0.0000000000000000e+00 0.0000000000000000e+00 0.0000000000000000e+00  -3.3864625927073789e+01 3.6697398883197216e+01 0.0000000000000000e+00 3.6697398883197216e+01 8.1531775470091318e+01 0.0000000000000000e+00 0.0000000000000000e+00 0.0000000000000000e+00 0.0000000000000000e+00  -3.1903609794968702e+01 5.5173174521207194e+01 0.0000000000000000e+00 5.5173174521207194e+01 7.4992046003229291e+01 0.0000000000000000e+00 0.0000000000000000e+00 0.0000000000000000e+00 0.0000000000000000e+00  -9.6375121242106179e+00 7.5359507083487628e+01 0.0000000000000000e+00 7.5359507083487628e+01 5.3902993158121376e+01 0.0000000000000000e+00 0.0000000000000000e+00 0.0000000000000000e+00 0.0000000000000000e+00  1.3240164111383848e+01 -1.2335881527710018e+01 0.0000000000000000e+00 -1.2335881527710018e+01 3.9327838464642312e+01 0.0000000000000000e+00 0.0000000000000000e+00 0.0000000000000000e+00 0.0000000000000000e+00  2.2320897222460133e+01 -8.1001229015168774e-01 0.0000000000000000e+00 -8.1001229015168774e-01 1.9044406908453912e+01 0.0000000000000000e+00 0.0000000000000000e+00 0.0000000000000000e+00 0.0000000000000000e+00  3.4902263831570835e+01 1.7473294255185493e+01 0.0000000000000000e+00 1.7473294255185493e+01 1.2056884883436474e+01 0.0000000000000000e+00 0.0000000000000000e+00 0.0000000000000000e+00 0.0000000000000000e+00  2.5356567561514062e+01 1.0681648491489748e+01 0.0000000000000000e+00 1.0681648491489748e+01 1.9464388128374033e+01 0.0000000000000000e+00 0.0000000000000000e+00 0.0000000000000000e+00 0.0000000000000000e+00  -7.4039498985344476e+00 -7.2031074878327566e+00 0.0000000000000000e+00 -7.2031074878327566e+00 4.7612308013092402e+01 0.0000000000000000e+00 0.0000000000000000e+00 0.0000000000000000e+00 0.0000000000000000e+00  -5.5139488699360932e+01 6.0782604786562660e+00 0.0000000000000000e+00 6.0782604786562660e+00 8.3114513847556537e+01 0.0000000000000000e+00 0.0000000000000000e+00 0.0000000000000000e+00 0.0000000000000000e+00  -2.8811472238108220e+01 1.4720755964495021e+01 0.0000000000000000e+00 1.4720755964495021e+01 7.4871369971012456e+01 0.0000000000000000e+00 0.0000000000000000e+00 0.0000000000000000e+00 0.0000000000000000e+00  1.2806620733919889e+01 -2.6102783455977093e+01 0.0000000000000000e+00 -2.6102783455977093e+01 3.2661944910032560e+01 0.0000000000000000e+00 0.0000000000000000e+00 0.0000000000000000e+00 0.0000000000000000e+00  1.7159752170348490e+01 -5.0557784865231504e+01 0.0000000000000000e+00 -5.0557784865231504e+01 1.0562628288858910e+01 0.0000000000000000e+00 0.0000000000000000e+00 0.0000000000000000e+00 0.0000000000000000e+00  4.1661427310889557e+01 -2.2875636664707073e+01 0.0000000000000000e+00 -2.2875636664707073e+01 -2.1127173262775667e+00 0.0000000000000000e+00 0.0000000000000000e+00 0.0000000000000000e+00 0.0000000000000000e+00  5.6775622245113496e+01 3.2652826034199450e+01 0.0000000000000000e+00 3.2652826034199450e+01 -1.8128913633410413e+01 0.0000000000000000e+00 0.0000000000000000e+00 0.0000000000000000e+00 0.0000000000000000e+00  8.5173308770334515e+01 4.3709200654766491e+01 0.0000000000000000e+00 4.3709200654766491e+01 -4.1488261021575688e+01 0.0000000000000000e+00 0.0000000000000000e+00 0.0000000000000000e+00 0.0000000000000000e+00  5.1121002075450612e+01 1.1366867948843209e+01 0.0000000000000000e+00 1.1366867948843209e+01 -5.6686686188075628e+00 0.0000000000000000e+00 0.0000000000000000e+00 0.0000000000000000e+00 0.0000000000000000e+00  2.3076320064723909e+01 4.4547142090036482e+00 0.0000000000000000e+00 4.4547142090036482e+00 2.1699243094782911e+01 0.0000000000000000e+00 0.0000000000000000e+00 0.0000000000000000e+00 0.0000000000000000e+00  -3.8338571759870912e+00 4.4707974896910354e+00 0.0000000000000000e+00 4.4707974896910354e+00 4.6566323596903416e+01 0.0000000000000000e+00 0.0000000000000000e+00 0.0000000000000000e+00 0.0000000000000000e+00  3.7362482250583263e+01 -4.2224001527529900e+01 0.0000000000000000e+00 -4.2224001527529900e+01 1.4300692172938309e+01 0.0000000000000000e+00 0.0000000000000000e+00 0.0000000000000000e+00 0.0000000000000000e+00  2.3502964572370836e+01 -6.5563252652184346e+01 0.0000000000000000e+00 -6.5563252652184346e+01 1.4888733984746774e+00 0.0000000000000000e+00 0.0000000000000000e+00 0.0000000000000000e+00 0.0000000000000000e+00  2.3633988077328169e+01 -1.2055720276624239e+01 0.0000000000000000e+00 -1.2055720276624239e+01 -1.5435346238335851e-01 0.0000000000000000e+00 0.0000000000000000e+00 0.0000000000000000e+00 0.0000000000000000e+00  5.2478738162214327e+01 2.7135240059846243e+01 0.0000000000000000e+00 2.7135240059846243e+01 -2.6047782949749770e+01 0.0000000000000000e+00 0.0000000000000000e+00 0.0000000000000000e+00 0.0000000000000000e+00  5.7831720694617459e+01 2.2217987834625408e+01 0.0000000000000000e+00 2.2217987834625408e+01 -2.8009407518686075e+01 0.0000000000000000e+00 0.0000000000000000e+00 0.0000000000000000e+00 0.0000000000000000e+00  5.0661438145546057e+01 5.0182350515167080e+00 0.0000000000000000e+00 5.0182350515167080e+00 -3.8067478277767202e+00 0.0000000000000000e+00 0.0000000000000000e+00 0.0000000000000000e+00 0.0000000000000000e+00  2.1704238373374150e+01 1.2012152537486533e+00 0.0000000000000000e+00 1.2012152537486533e+00 2.0696163619745182e+01 0.0000000000000000e+00 0.0000000000000000e+00 0.0000000000000000e+00 0.0000000000000000e+00  2.3208555326130472e+01 8.4227472840810802e-01 0.0000000000000000e+00 8.4227472840810802e-01 2.3531696307181051e+01 0.0000000000000000e+00 0.0000000000000000e+00 0.0000000000000000e+00 0.0000000000000000e+00  2.4331695942645094e+01 -6.9732603448187525e-01 0.0000000000000000e+00 -6.9732603448187525e-01 2.0803167936774464e+01 0.0000000000000000e+00 0.0000000000000000e+00 0.0000000000000000e+00 0.0000000000000000e+00  1.5654379637947271e+01 -6.8699615945931027e+00 0.0000000000000000e+00 -6.8699615945931027e+00 2.4889449910981035e+01 0.0000000000000000e+00 0.0000000000000000e+00 0.0000000000000000e+00 0.0000000000000000e+00  4.7042198032169217e+01 -1.5640220169199841e+01 0.0000000000000000e+00 -1.5640220169199841e+01 -1.6295193836994361e+01 0.0000000000000000e+00 0.0000000000000000e+00 0.0000000000000000e+00 0.0000000000000000e+00  7.0259727661424051e+01 -5.1568501334763859e+01 0.0000000000000000e+00 -5.1568501334763859e+01 -4.2232514598339421e+01 0.0000000000000000e+00 0.0000000000000000e+00 0.0000000000000000e+00 0.0000000000000000e+00  5.1878977135560405e+01 -4.0722901893729734e+01 0.0000000000000000e+00 -4.0722901893729734e+01 -3.2618061555675510e+01 0.0000000000000000e+00 0.0000000000000000e+00 0.0000000000000000e+00 0.0000000000000000e+00  2.5664101871577692e+01 1.3196613128938385e+01 0.0000000000000000e+00 1.3196613128938385e+01 -2.1562245698575899e+00 0.0000000000000000e+00 0.0000000000000000e+00 0.0000000000000000e+00 0.0000000000000000e+00  2.4315536386091786e+01 3.8039621596958618e+01 0.0000000000000000e+00 3.8039621596958618e+01 1.3277366610960636e+01 0.0000000000000000e+00 0.0000000000000000e+00 0.0000000000000000e+00 0.0000000000000000e+00  -7.8477925399965143e+00 -2.1869652567959337e+00 0.0000000000000000e+00 -2.1869652567959337e+00 3.1709299759982223e+01 0.0000000000000000e+00 0.0000000000000000e+00 0.0000000000000000e+00 0.0000000000000000e+00  -4.7151954394414958e+01 -2.9772207265632254e+01 0.0000000000000000e+00 -2.9772207265632254e+01 7.1557385871357880e+01 0.0000000000000000e+00 0.0000000000000000e+00 0.0000000000000000e+00 0.0000000000000000e+00  -3.0104844879091051e+01 -4.0898793040924886e+01 0.0000000000000000e+00 -4.0898793040924886e+01 3.8909869320390129e+01 0.0000000000000000e+00 0.0000000000000000e+00 0.0000000000000000e+00 0.0000000000000000e+00  1.4925158254436594e+01 -5.6801831863253023e+00 0.0000000000000000e+00 -5.6801831863253023e+00 2.7102817462178812e+01 0.0000000000000000e+00 0.0000000000000000e+00 0.0000000000000000e+00 0.0000000000000000e+00  5.9768398695987045e+01 -3.9627600002449128e+01 0.0000000000000000e+00 -3.9627600002449128e+01 -2.7539690116353579e+01 0.0000000000000000e+00 0.0000000000000000e+00 0.0000000000000000e+00 0.0000000000000000e+00  6.4058048977922866e+01 -5.2116061117459950e+01 0.0000000000000000e+00 -5.2116061117459950e+01 -5.0614937774516754e+01 0.0000000000000000e+00 0.0000000000000000e+00 0.0000000000000000e+00 0.0000000000000000e+00  4.6793939259829394e+01 -3.4769560091098342e+01 0.0000000000000000e+00 -3.4769560091098342e+01 -1.9525203194201673e+01 0.0000000000000000e+00 0.0000000000000000e+00 0.0000000000000000e+00 0.0000000000000000e+00  6.6553324273430672e+00 1.4155727489796348e+00 0.0000000000000000e+00 1.4155727489796348e+00 7.3237055734167331e+00 0.0000000000000000e+00 0.0000000000000000e+00 0.0000000000000000e+00 0.0000000000000000e+00  -1.6496502061484836e+01 -2.1404326638244360e+01 0.0000000000000000e+00 -2.1404326638244360e+01 4.3760128910189707e+01 0.0000000000000000e+00 0.0000000000000000e+00 0.0000000000000000e+00 0.0000000000000000e+00  -1.3317369680242572e+02 -5.0890518358101836e+01 0.0000000000000000e+00 -5.0890518358101836e+01 1.3983809088078402e+02 0.0000000000000000e+00 0.0000000000000000e+00 0.0000000000000000e+00 0.0000000000000000e+00  -1.5317911699251567e+02 -2.5395555750003066e+01 0.0000000000000000e+00 -2.5395555750003066e+01 1.5903185053044723e+02 0.0000000000000000e+00 0.0000000000000000e+00 0.0000000000000000e+00 0.0000000000000000e+00  -1.1927231263137352e+02 1.3307003744276614e+01 0.0000000000000000e+00 1.3307003744276614e+01 1.3247506368580764e+02 0.0000000000000000e+00 0.0000000000000000e+00 0.0000000000000000e+00 0.0000000000000000e+00  -6.5189859563607953e+01 5.4860656315482316e+01 0.0000000000000000e+00 5.4860656315482316e+01 6.7256093203058569e+01 0.0000000000000000e+00 0.0000000000000000e+00 0.0000000000000000e+00 0.0000000000000000e+00  -9.6002745142493904e+00 2.6966031993344338e+01 0.0000000000000000e+00 2.6966031993344338e+01 1.7547688870651452e+01 0.0000000000000000e+00 0.0000000000000000e+00 0.0000000000000000e+00 0.0000000000000000e+00  -1.2420046529488666e+00 6.3877724981080837e+00 0.0000000000000000e+00 6.3877724981080837e+00 1.5019694815685170e+01 0.0000000000000000e+00 0.0000000000000000e+00 0.0000000000000000e+00 0.0000000000000000e+00  -1.2230561298002404e+02 7.8320561017036511e+01 0.0000000000000000e+00 7.8320561017036511e+01 -3.4827249299901283e+01 0.0000000000000000e+00 0.0000000000000000e+00 0.0000000000000000e+00 0.0000000000000000e+00  2.6962077443926086e+02 1.5277180950420782e+02 0.0000000000000000e+00 1.5277180950420782e+02 3.7391430568906976e+01 0.0000000000000000e+00 0.0000000000000000e+00 0.0000000000000000e+00 0.0000000000000000e+00  1.1257851149858498e+01 7.0575238796369447e+01 0.0000000000000000e+00 7.0575238796369447e+01 5.8567318434934821e+00 0.0000000000000000e+00 0.0000000000000000e+00 0.0000000000000000e+00 0.0000000000000000e+00  2.5224215402063482e+01 -1.0564619795809835e+00 0.0000000000000000e+00 -1.0564619795809835e+00 2.3527069078639119e+01 0.0000000000000000e+00 0.0000000000000000e+00 0.0000000000000000e+00 0.0000000000000000e+00  3.6045974654883167e+01 4.2568131229947967e+00 0.0000000000000000e+00 4.2568131229947967e+00 1.1608274296307139e+01 0.0000000000000000e+00 0.0000000000000000e+00 0.0000000000000000e+00 0.0000000000000000e+00  -2.1046751286669799e+01 4.3039696417258444e+00 0.0000000000000000e+00 4.3039696417258444e+00 -2.1390400278274804e+01 0.0000000000000000e+00 0.0000000000000000e+00 0.0000000000000000e+00 0.0000000000000000e+00  8.6245652777141970e+00 -1.4423842645499406e+02 0.0000000000000000e+00 -1.4423842645499406e+02 -6.1582134503370529e+00 0.0000000000000000e+00 0.0000000000000000e+00 0.0000000000000000e+00 0.0000000000000000e+00  1.4086062679242167e+01 7.3732552728774124e+01 0.0000000000000000e+00 7.3732552728774124e+01 2.3905089071087747e+01 0.0000000000000000e+00 0.0000000000000000e+00 0.0000000000000000e+00 0.0000000000000000e+00  7.7018027224344053e+01 -1.0578916256619939e+02 0.0000000000000000e+00 -1.0578916256619939e+02 -8.9322935924703906e-01 0.0000000000000000e+00 0.0000000000000000e+00 0.0000000000000000e+00 0.0000000000000000e+00  2.1061245394397648e+01 7.1586532189161929e+01 0.0000000000000000e+00 7.1586532189161929e+01 2.4405585575188024e+01 0.0000000000000000e+00 0.0000000000000000e+00 0.0000000000000000e+00 0.0000000000000000e+00  1.5585321650466444e+01 2.3025878296656614e+01 0.0000000000000000e+00 2.3025878296656614e+01 3.0579186425301341e+01 0.0000000000000000e+00 0.0000000000000000e+00 0.0000000000000000e+00 0.0000000000000000e+00  2.9444970450603915e+01 -1.8027277173315909e-01 0.0000000000000000e+00 -1.8027277173315909e-01 2.7292938128460293e+01 0.0000000000000000e+00 0.0000000000000000e+00 0.0000000000000000e+00 0.00000