<?xml version="1.0"?>
<VTKFile type="UnstructuredGrid"  version="0.1"  >
<UnstructuredGrid>
<Piece  NumberOfPoints="4961" NumberOfCells="9546">
<Points>
<DataArray  type="Float64"  NumberOfComponents="3"  format="ascii">0 1.5 0  -0 0.09117947244826481 0  0.0220162612375116 0.1293127555043441 0  0.05279126660105127 0.1634918616050268 0  0.09000000000000007 0.1905255888325765 0  0.1320162612375116 0.2092324335849338 0  0.1770037380811163 0.2187948169810202 0  0.2229962619188838 0.2187948169810201 0  0.2679837387624884 0.2092324335849338 0  0.3100000000000001 0.1905255888325765 0  0.3472087333989489 0.1634918616050267 0  0.3779837387624885 0.1293127555043441 0  0.4009800006813722 0.08948206147667603 0  0.4052662851173224 0.07629023443250138 0  0.4200599930048062 0.1082663100071745 0  0.4475409466961425 0.1444168863592189 0  0.4821507162738997 0.173814689612947 0  0.522270987378618 0.1950851111615262 0  0.5660257807239194 0.2072335697337205 0  0.6113691708029376 0.209692016908736 0  0.6561809510911363 0.2023454984290368 0  0.6983657725469559 0.1855375293336648 0  0.7359511198041838 0.1600540315768036 0  0.7671795437981852 0.1270865851906907 0  0.7895690044779959 0.089875012069959 0  0.7989002782867461 0.1116194513821486 0  0.825485631780658 0.1498156710261111 0  0.8592156240140376 0.1818784194956707 0  0.8987093451417441 0.2064950441012706 0  0.9423499175804944 0.222657737339227 0  0.9883506911670961 0.2297047966493422 0  1.034828388826053 0.2273477145954656 0  1.079880208154309 0.2156829903938285 0  1.121661722375201 0.1951881792237927 0  1.158462391387408 0.1667023410626976 0  1.188775591477674 0.1313916894718022 0  1.211360296672653 0.09070184667606328 0  1.225291886488074 0.04629865962039181 0  1.23 0 0  1.38 0 0  1.384807527838563 0.04574057197990705 0  1.399019999318628 0.08948206147667601 0  1.422016261237512 0.1293127555043441 0  1.452791266601051 0.1634918616050268 0  1.49 0.1905255888325765 0  1.532016261237512 0.2092324335849338 0  1.577003738081116 0.2187948169810202 0  1.622996261918884 0.2187948169810201 0  1.667983738762489 0.2092324335849338 0  1.71 0.1905255888325765 0  1.747208733398949 0.1634918616050267 0  1.763158635297163 0.1457777009465727 0  1.8 0.1732050807568878 0  1.842639353457782 0.1915979024630978 0  1.888371034217905 0.1996616316542537 0  1.934729635533386 0.1969615506024416 0  1.979215953207831 0.1836432213760548 0  2.019431718340557 0.1604246385510087 0  2.053208888623796 0.1285575219373079 0  2.078726528064682 0.08975983604009244 0  2.089496128668151 0.06017060156551748 0  2.099019999318628 0.08948206147667601 0  2.122016261237512 0.1293127555043441 0  2.152791266601051 0.1634918616050268 0  2.19 0.1905255888325765 0  2.232016261237511 0.2092324335849338 0  2.277003738081116 0.2187948169810202 0  2.322996261918884 0.2187948169810201 0  2.367983738762488 0.2092324335849338 0  2.41 0.1905255888325765 0  2.447208733398949 0.1634918616050267 0  2.457084733682728 0.1525234520934048 0  2.4821507162739 0.173814689612947 0  2.522270987378618 0.1950851111615262 0  2.56602578072392 0.2072335697337205 0  2.611369170802938 0.209692016908736 0  2.656180951091136 0.2023454984290368 0  2.698365772546956 0.1855375293336648 0  2.735951119804184 0.1600540315768036 0  2.767179543798185 0.1270865851906907 0  2.790590838130901 0.08817671132765556 0  2.805090316699118 0.04514379244431505 0  2.81 0 0  3 0 0  3 1.5 0  0 0.7956998320486358 0  0.4110904441558352 0.08887894789033324 0  0.7773699356874649 0.1101500221202465 0  1.5 1.5 0  3 0.75 0  0 0.4434396522484503 0  3 0.375 0  0 0.2673095623483576 0  0 0.1792445173983112 0  0 0.135211994923288 0  2.25 1.5 0  0.75 1.5 0  1.807676614587897 0.8837271123414687 0  1.04553857344641 0.8979441530181422 0  2.403437242208115 0.8132876225209357 0  0.5070864579510219 1.00719278150819 0  3 1.125 0  1.338035405010484 0.5883821138073757 0  2.625 1.5 0  0.3818338799394321 0.6099209340690734 0  2.067950237167102 0.5767429460037152 0  1.428016626639016 0.9663701540160734 0  1.875 1.5 0  2.136976695697423 1.114248364898298 0  1.125 1.5 0  0.375 1.5 0  0.7837785056474272 0.5924157926009261 0  2.621900904970652 1.121900904970652 0  0 1.147849916024318 0  1.717071692555337 0.550779009763445 0  1.678619011272733 1.204235418149387 0  0.8184015011321764 1.160011833453945 0  2.690771901920515 0.5625 0  1.191553529739931 1.18494431212041 0  2.361743998733192 0.516240498397431 0  2.727335050325185 0.8509414958930873 0  1.061120194703906 0.6196995992969355 0  0.269244960297408 0.8637990218922467 0  0.7609530458041533 0.8768664729047809 0  0.5625 1.286150286226427 0  0.2788879438654684 1.226607136693913 0  2.077535333020466 0.8486969269297693 0  2.4375 1.312474598220077 0  2.809426100237187 1.309426100237187 0  1.544358239139601 0.7389704993474611 0  1.434454912167138 1.210530519498476 0  2.380335199591509 1.061271835208851 0  1.926191456889599 1.252931474193008 0  0.5486378118088926 0.7757115443742588 0  0.5753328044103648 0.454959652232189 0  1.281333603460298 0.3634530521588742 0  0.9959109141311655 1.308173392725312 0  1.507364216928931 0.4358170942512657 0  1.21812632380771 0.7680504611018459 0  0 0.6195697421485431 0  1.3125 1.5 0  0.2892140007400885 0.4197188740688536 0  1.924109453869066 0.4139433366638808 0  0.9329747065756857 0.4375180073994652 0  2.243231692495831 0.684324343130167 0  2.0625 1.5 0  2.124178136191116 0.3821183579116478 0  1.923364695744858 0.7179848099571996 0  2.233034933769442 1.295537230099697 0  1.961794510294921 1.014032929092127 0  0.9133498533613748 0.7509830595402348 0  0 0.9717748740364769 0  0.1875 1.5 0  0 1.323924958012159 0  1.227107007305785 0.9862124750220198 0  1.616617139708145 0.9194004298184476 0  2.811636610329211 1.039737091854792 0  0.1901803394569171 0.5855957240372172 0  2.511165533602297 0.6467174115519351 0  2.536466024168012 0.9507486861843897 0  0.1866521719860137 1.047526440960541 0  2.74946330463778 0.3751246081287475 0  2.543804048982231 0.4145708923164018 0  0.9375 1.5 0  2.4375 1.5 0  0.5625 1.5 0  3 0.5625 0  1.6875 1.5 0  3 0.1875 0  3 0.9375 0  3 1.3125 0  2.8125 1.5 0  1.010044310702206 1.096645863828023 0  2.623488142128434 1.314011651358178 0  2.229558763998408 0.9540962470011799 0  2.845385950960257 0.65625 0  0.7525337220569124 0.4130199536593896 0  1.10537722367743 0.3921278680533664 0  0.6842290971134891 1.039833940778862 0  0.7386374643770518 1.32083913541365 0  1.553387564684306 1.08522930563603 0  1.788789291239656 1.06235950910253 0  1.559809215736361 1.334301807720895 0  1.750410104758408 0.7205088288478614 0  1.672011031024921 0.3842266692686779 0  1.77867146649739 1.349246747510312 0  1.21875 1.355246746101045 0  0.8723426006985372 1.001666865795386 0  1.380631426145093 0.7466576340788873 0  0.4259246536592668 0.3283409344703117 0  0.3444360723462823 1.008028502358495 0  0.6161474109915657 0.6198433096250735 0  0.4265019066463465 1.151756411601508 0  1.403034104827827 1.367717620859348 0  2.874684993382777 0.28125 0  2.874778249279309 0.46875 0  2.071314369495706 1.334001876948522 0  2.3 0.3730371416193449 0  1.322682484320052 1.105857305698365 0  1.563127563616163 0.5828461597844022 0  2.559040610931566 0.7958017532902765 0  1.213306121383676 0.5002133671656324 0  1.916121887065227 0.5659454196943852 0  2.207677378621353 0.5116761937353096 0  0.1257028237453774 1.235887437018238 0  0.7203062975228639 0.7304636720840537 0  0.3921145397364951 0.7663844669080319 0  2.70905347612285 0.7067207479465436 0  2.87968965213058 0.84375 0  0.1396742765227637 0.3714373577111671 0  0.1209675020841686 0.8837373530425563 0  0.1396318055029159 0.7309656161457982 0  0.4039274761094683 1.336239793581983 0  2.676470777350768 0.9877614171414461 0  0.2098223519481562 1.355491059017463 0  0.6161949108813681 0.9073080762684851 0  0.6728981805985057 1.187471545812503 0  0.4313243650936899 0.473428383024358 0  1.317579957488075 0.8752219089473544 0  1.05247475519209 0.7587740171666131 0  0.9218858728134471 0.6117854803862035 0  2.343741823603972 1.201704901656183 0  2.483180588903391 1.163054990844907 0  1.336494261441537 0.237261632693729 0  2.096334636915305 0.983917300563715 0  2.059942810014369 0.7131710752499992 0  1.940957218750955 0.8535106616369695 0  0.2735884026449029 0.6956028768230409 0  2.3791553829517 0.6794620539851567 0  2.443566922502795 0.3224565874575337 0  2.21140571429892 0.8179437442036444 0  2.863880028189143 1.175018869261394 0  1.212122991296861 0.6341965806889284 0  0.8702381850023826 1.37471255674248 0  0.4252003220264352 0.89843828480276 0  2.714126143737636 1.217200861470203 0  2.34375 1.406237299110039 0  2.71875 1.406237608026668 0  2.903224894283775 1.403224894283775 0  2.53125 1.5 0  1.444637821860123 0.3169971434781329 0  1.307097209138961 1.253815337580837 0  1.806074818262501 0.3310941379078186 0  0.09375 1.5 0  1.96875 1.5 0  1.467196512253796 0.8429542418758076 0  0.7811182225539175 0.2860230046382459 0  0.8880470276332622 0.8755399020562793 0  2.004554624687214 1.142507703833496 0  1.901808674873915 1.376717053991818 0  1.80956117606876 1.192202387775541 0  0.65625 1.5 0  2.256163989601168 1.076312782066936 0  2.35728348455407 0.9340561611988477 0  0.5508073343087652 1.161974855816299 0  1.822201850254356 0.484799098822588 0  0.6415475671733072 0.3394071993736185 0  0.6854011703162045 0.5171310296285601 0  2.010601404748645 0.3128962050875828 0  1.458109478391155 0.6494112449225909 0  1.556659288882675 1.21212759481645 0  2.15625 1.5 0  1.102952541966123 1.010721102324488 0  3 0.09375 0  2.905 0 0  1.698833571793874 0.8302602504158462 0  0.1128136071602732 0.4908067814983783 0  1.375215724596343 0.4593979824254396 0  1.667188501011557 1.033651962891267 0  0.5152717989473731 0.5573202673988191 0  0.4756630816937197 0.6823252715484635 0  2.485944291803511 0.5248037876852512 0  0.609375 1.393075143113214 0  1.657554629504312 0.6506084627130724 0  1.180547956106694 0.2992004577305749 0  1.040994897946075 0.4976964206623483 0  2.883588023402782 0.1625217501240843 0  1.437965738677728 1.09476840787
[...]
<PointData  Tensors="f_188"> 
<DataArray  type="Float64"  Name="f_188"  NumberOfComponents="9" format="ascii">-1.0356744094399035e+01 4.8279018615528868e-01 0.0000000000000000e+00 4.8279018615528868e-01 -1.4486080982788394e+01 0.0000000000000000e+00 0.0000000000000000e+00 0.0000000000000000e+00 0.0000000000000000e+00  3.0668152718427127e+01 -6.4155925707229533e-01 0.0000000000000000e+00 -6.4155925707229533e-01 2.4561714243447753e+01 0.0000000000000000e+00 0.0000000000000000e+00 0.0000000000000000e+00 0.0000000000000000e+00  3.0976881434149419e+01 -5.5016853272024981e+00 0.0000000000000000e+00 -5.5016853272024981e+00 2.7270227673751574e+01 0.0000000000000000e+00 0.0000000000000000e+00 0.0000000000000000e+00 0.0000000000000000e+00  3.7797003672685349e+01 -3.2180833792038595e+00 0.0000000000000000e+00 -3.2180833792038595e+00 1.9267193866298967e+01 0.0000000000000000e+00 0.0000000000000000e+00 0.0000000000000000e+00 0.0000000000000000e+00  3.7860787687361814e+01 -9.6094225418437880e+00 0.0000000000000000e+00 -9.6094225418437880e+00 8.3808397736237694e+00 0.0000000000000000e+00 0.0000000000000000e+00 0.0000000000000000e+00 0.0000000000000000e+00  3.6880802560373930e+01 -4.2544851215574413e+00 0.0000000000000000e+00 -4.2544851215574404e+00 1.4460419031100198e+01 0.0000000000000000e+00 0.0000000000000000e+00 0.0000000000000000e+00 0.0000000000000000e+00  2.8170487134417108e+01 5.3693813903913998e+00 0.0000000000000000e+00 5.3693813903913998e+00 1.5794966478319028e+01 0.0000000000000000e+00 0.0000000000000000e+00 0.0000000000000000e+00 0.0000000000000000e+00  2.6666886282365805e+01 1.7565679780978115e+01 0.0000000000000000e+00 1.7565679780978115e+01 1.6180094750226417e+01 0.0000000000000000e+00 0.0000000000000000e+00 0.0000000000000000e+00 0.0000000000000000e+00  2.2528576781700878e+01 9.8961304149639719e+00 0.0000000000000000e+00 9.8961304149639719e+00 2.3283619825954190e+01 0.0000000000000000e+00 0.0000000000000000e+00 0.0000000000000000e+00 0.0000000000000000e+00  8.2715000664252720e+00 -6.6626658137900663e-01 0.0000000000000000e+00 -6.6626658137900663e-01 3.8474129835647183e+01 0.0000000000000000e+00 0.0000000000000000e+00 0.0000000000000000e+00 0.0000000000000000e+00  3.0835492422414683e+00 -1.4935313043467222e+00 0.0000000000000000e+00 -1.4935313043467222e+00 4.7783955335487953e+01 0.0000000000000000e+00 0.0000000000000000e+00 0.0000000000000000e+00 0.0000000000000000e+00  1.1301283409569333e+01 3.0594503570087234e-01 0.0000000000000000e+00 3.0594503570087234e-01 3.2761720474369184e+01 0.0000000000000000e+00 0.0000000000000000e+00 0.0000000000000000e+00 0.0000000000000000e+00  2.2793600406929571e+01 -1.4207267215660218e+00 0.0000000000000000e+00 -1.4207267215660218e+00 2.3898633966725257e+01 0.0000000000000000e+00 0.0000000000000000e+00 0.0000000000000000e+00 0.0000000000000000e+00  2.4286832403989941e+01 -1.0645503311388562e+00 0.0000000000000000e+00 -1.0645503311388562e+00 2.2828692205380122e+01 0.0000000000000000e+00 0.0000000000000000e+00 0.0000000000000000e+00 0.0000000000000000e+00  3.3465016856850291e+01 1.9636908779294668e+00 0.0000000000000000e+00 1.9636908779294668e+00 1.7758139238819755e+01 0.0000000000000000e+00 0.0000000000000000e+00 0.0000000000000000e+00 0.0000000000000000e+00  3.5179488140175806e+01 3.1268743146886444e+00 0.0000000000000000e+00 3.1268743146886444e+00 1.3104351398958062e+01 0.0000000000000000e+00 0.0000000000000000e+00 0.0000000000000000e+00 0.0000000000000000e+00  1.8475532338244847e+01 2.8405530673417667e+00 0.0000000000000000e+00 2.8405530673417667e+00 2.3004941383991032e+01 0.0000000000000000e+00 0.0000000000000000e+00 0.0000000000000000e+00 0.0000000000000000e+00  8.7714983391436139e+00 1.6545888518069916e+01 0.0000000000000000e+00 1.6545888518069916e+01 3.1173810377611765e+01 0.0000000000000000e+00 0.0000000000000000e+00 0.0000000000000000e+00 0.0000000000000000e+00  1.4202116540783726e+01 1.2699971569708906e+01 0.0000000000000000e+00 1.2699971569708906e+01 3.1559071723024910e+01 0.0000000000000000e+00 0.0000000000000000e+00 0.0000000000000000e+00 0.0000000000000000e+00  1.3628728146658906e+01 -5.3691941923413680e+00 0.0000000000000000e+00 -5.3691941923413680e+00 3.1602616401569893e+01 0.0000000000000000e+00 0.0000000000000000e+00 0.0000000000000000e+00 0.0000000000000000e+00  1.4208000858394213e+01 -8.4674447671315587e+00 0.0000000000000000e+00 -8.4674447671315587e+00 3.1609747167599362e+01 0.0000000000000000e+00 0.0000000000000000e+00 0.0000000000000000e+00 0.0000000000000000e+00  2.2071446537561620e+01 -6.0160115897668707e+00 0.0000000000000000e+00 -6.0160115897668707e+00 2.2522133900733404e+01 0.0000000000000000e+00 0.0000000000000000e+00 0.0000000000000000e+00 0.0000000000000000e+00  2.7965616420266063e+01 -3.9241752636537255e+00 0.0000000000000000e+00 -3.9241752636537255e+00 1.5423687683596288e+01 0.0000000000000000e+00 0.0000000000000000e+00 0.0000000000000000e+00 0.0000000000000000e+00  3.3941964244843895e+01 7.0339810222625282e-02 0.0000000000000000e+00 7.0339810222625282e-02 1.2547707660723688e+01 0.0000000000000000e+00 0.0000000000000000e+00 0.0000000000000000e+00 0.0000000000000000e+00  2.2461479662345976e+01 6.6029942678396047e-01 0.0000000000000000e+00 6.6029942678396047e-01 1.9103300969281264e+01 0.0000000000000000e+00 0.0000000000000000e+00 0.0000000000000000e+00 0.0000000000000000e+00  1.5069915172032019e+01 -7.6258650024662689e-01 0.0000000000000000e+00 -7.6258650024662689e-01 2.4876175357214009e+01 0.0000000000000000e+00 0.0000000000000000e+00 0.0000000000000000e+00 0.0000000000000000e+00  1.0524260963206423e+01 -9.0961037218863028e-01 0.0000000000000000e+00 -9.0961037218863028e-01 3.0680863680247210e+01 0.0000000000000000e+00 0.0000000000000000e+00 0.0000000000000000e+00 0.0000000000000000e+00  5.6077159663923917e+00 7.6834756904830330e+00 0.0000000000000000e+00 7.6834756904830330e+00 4.8391788133834893e+01 0.0000000000000000e+00 0.0000000000000000e+00 0.0000000000000000e+00 0.0000000000000000e+00  1.5472074775677623e+01 4.0565551106037123e+00 0.0000000000000000e+00 4.0565551106037123e+00 3.4263502751935526e+01 0.0000000000000000e+00 0.0000000000000000e+00 0.0000000000000000e+00 0.0000000000000000e+00  2.0472766889056313e+01 -5.8694877441469577e+00 0.0000000000000000e+00 -5.8694877441469577e+00 2.5045109982137870e+01 0.0000000000000000e+00 0.0000000000000000e+00 0.0000000000000000e+00 0.0000000000000000e+00  1.6407083427982094e+01 -1.8936439714671614e+01 0.0000000000000000e+00 -1.8936439714671614e+01 1.0147546395920484e+01 0.0000000000000000e+00 0.0000000000000000e+00 0.0000000000000000e+00 0.0000000000000000e+00  1.7514624569769488e+01 -2.0847091539331397e+00 0.0000000000000000e+00 -2.0847091539331397e+00 1.2712275251707059e+01 0.0000000000000000e+00 0.0000000000000000e+00 0.0000000000000000e+00 0.0000000000000000e+00  2.8359464746505022e+01 1.0863810035141986e+01 0.0000000000000000e+00 1.0863810035141986e+01 2.9583526270647575e+00 0.0000000000000000e+00 0.0000000000000000e+00 0.0000000000000000e+00 0.0000000000000000e+00  3.6275731464202678e+01 9.0861455509291496e+00 0.0000000000000000e+00 9.0861455509291496e+00 1.1406274226584321e+01 0.0000000000000000e+00 0.0000000000000000e+00 0.0000000000000000e+00 0.0000000000000000e+00  2.1618560823298271e+01 5.1552972073444980e+00 0.0000000000000000e+00 5.1552972073444980e+00 2.1778084103121419e+01 0.0000000000000000e+00 0.0000000000000000e+00 0.0000000000000000e+00 0.0000000000000000e+00  8.3545361692529791e+00 9.9904835755860883e+00 0.0000000000000000e+00 9.9904835755860883e+00 3.8197145148352689e+01 0.0000000000000000e+00 0.0000000000000000e+00 0.0000000000000000e+00 0.0000000000000000e+00  1.0672182687886721e+01 1.2847752355670632e+01 0.0000000000000000e+00 1.2847752355670632e+01 3.5628905357202179e+01 0.0000000000000000e+00 0.0000000000000000e+00 0.0000000000000000e+00 0.0000000000000000e+00  1.5169563389902537e+01 1.9899819617035057e+01 0.0000000000000000e+00 1.9899819617035057e+01 3.0811398996531981e+01 0.0000000000000000e+00 0.0000000000000000e+00 0.0000000000000000e+00 0.0000000000000000e+00  1.6782074047480666e+01 -4.3927151780542228e+00 0.0000000000000000e+00 -4.3927151780542228e+00 3.2343191623234496e+01 0.0000000000000000e+00 0.0000000000000000e+00 0.0000000000000000e+00 0.0000000000000000e+00  2.1812474149915186e+01 -4.4682256187101416e-01 0.0000000000000000e+00 -4.4682256187101416e-01 2.5627598290571949e+01 0.0000000000000000e+00 0.0000000000000000e+00 0.0000000000000000e+00 0.0000000000000000e+00  2.6429956496455603e+01 4.9581178265354362e+00 0.0000000000000000e+00 4.9581178265354362e+00 2.0199479594082856e+01 0.0000000000000000e+00 0.0000000000000000e+00 0.0000000000000000e+00 0.0000000000000000e+00  2.2615501059254509e+01 2.5553684485158397e+00 0.0000000000000000e+00 2.5553684485158397e+00 2.2193671814826729e+01 0.0000000000000000e+00 0.0000000000000000e+00 0.0000000000000000e+00 0.0000000000000000e+00  1.3268249647965419e+01 -1.2632560648596920e+00 0.0000000000000000e+00 -1.2632560648596920e+00 2.8388993175324888e+01 0.0000000000000000e+00 0.0000000000000000e+00 0.0000000000000000e+00 0.0000000000000000e+00  -1.0518329347597908e+00 1.1440772104833479e+00 0.0000000000000000e+00 1.1440772104833479e+00 3.4845574728487911e+01 0.0000000000000000e+00 0.0000000000000000e+00 0.0000000000000000e+00 0.0000000000000000e+00  9.6806530783478539e+00 3.3912986349931344e+00 0.0000000000000000e+00 3.3912986349931344e+00 3.3324875864020463e+01 0.0000000000000000e+00 0.0000000000000000e+00 0.0000000000000000e+00 0.0000000000000000e+00  1.8740438732088727e+01 -6.0727390741479788e+00 0.0000000000000000e+00 -6.0727390741479788e+00 2.5271517146038022e+01 0.0000000000000000e+00 0.0000000000000000e+00 0.0000000000000000e+00 0.0000000000000000e+00  1.9282207407249306e+01 -1.0900968094992155e+01 0.0000000000000000e+00 -1.0900968094992155e+01 1.5840583486024286e+01 0.0000000000000000e+00 0.0000000000000000e+00 0.0000000000000000e+00 0.0000000000000000e+00  2.6704902554035112e+01 -6.0326842829088534e+00 0.0000000000000000e+00 -6.0326842829088534e+00 1.0090783589880642e+01 0.0000000000000000e+00 0.0000000000000000e+00 0.0000000000000000e+00 0.0000000000000000e+00  2.9181609582361457e+01 6.1755666475989157e+00 0.0000000000000000e+00 6.1755666475989157e+00 6.7202941943731895e+00 0.0000000000000000e+00 0.0000000000000000e+00 0.0000000000000000e+00 0.0000000000000000e+00  4.0109051363498530e+01 1.0111318513870817e+01 0.0000000000000000e+00 1.0111318513870817e+01 5.3284964025492085e+00 0.0000000000000000e+00 0.0000000000000000e+00 0.0000000000000000e+00 0.0000000000000000e+00  3.2050015052597708e+01 6.7517055517421181e+00 0.0000000000000000e+00 6.7517055517421181e+00 1.3260071650447941e+01 0.0000000000000000e+00 0.0000000000000000e+00 0.0000000000000000e+00 0.0000000000000000e+00  2.0854061971232827e+01 -5.1704166154409652e+00 0.0000000000000000e+00 -5.1704166154409652e+00 -8.6059737066713780e+00 0.0000000000000000e+00 0.0000000000000000e+00 0.0000000000000000e+00 0.0000000000000000e+00  1.3314183302923484e+01 1.5805639319354270e+00 0.0000000000000000e+00 1.5805639319354270e+00 2.5381753659227773e+01 0.0000000000000000e+00 0.0000000000000000e+00 0.0000000000000000e+00 0.0000000000000000e+00  2.8942456825581935e+01 -1.1856404549552515e+01 0.0000000000000000e+00 -1.1856404549552515e+01 1.8308516062785849e+01 0.0000000000000000e+00 0.0000000000000000e+00 0.0000000000000000e+00 0.0000000000000000e+00  1.6189046041389432e+01 -1.7050040002257461e+01 0.0000000000000000e+00 -1.7050040002257461e+01 1.0892445371606060e+01 0.0000000000000000e+00 0.0000000000000000e+00 0.0000000000000000e+00 0.0000000000000000e+00  1.7220328156240683e+01 -4.0487322211505781e+00 0.0000000000000000e+00 -4.0487322211505781e+00 8.7515700182464027e+00 0.0000000000000000e+00 0.0000000000000000e+00 0.0000000000000000e+00 0.0000000000000000e+00  2.4254440928568563e+01 5.9436095731366434e+00 0.0000000000000000e+00 5.9436095731366434e+00 4.6776694417527231e+00 0.0000000000000000e+00 0.0000000000000000e+00 0.0000000000000000e+00 0.0000000000000000e+00  2.6474390760932533e+01 4.3638374695467625e+00 0.0000000000000000e+00 4.3638374695467625e+00 6.6596738462646661e+00 0.0000000000000000e+00 0.0000000000000000e+00 0.0000000000000000e+00 0.0000000000000000e+00  3.0322927494245594e+01 -2.0849256283234214e-02 0.0000000000000000e+00 -2.0849256283234214e-02 1.4207155704161041e+01 0.0000000000000000e+00 0.0000000000000000e+00 0.0000000000000000e+00 0.0000000000000000e+00  2.7143800838759031e+01 3.2424198691219193e+00 0.0000000000000000e+00 3.2424198691219193e+00 1.5385002356379811e+01 0.0000000000000000e+00 0.0000000000000000e+00 0.0000000000000000e+00 0.0000000000000000e+00  2.3313779380969702e+01 -1.3394853329761909e+00 0.0000000000000000e+00 -1.3394853329761909e+00 1.4837943959792204e+01 0.0000000000000000e+00 0.0000000000000000e+00 0.0000000000000000e+00 0.0000000000000000e+00  1.4263235620832010e+01 -7.1263488419585581e+00 0.0000000000000000e+00 -7.1263488419585581e+00 3.5918211412468153e+01 0.0000000000000000e+00 0.0000000000000000e+00 0.0000000000000000e+00 0.0000000000000000e+00  1.8251134637603400e+01 -8.5107966802073520e-01 0.0000000000000000e+00 -8.5107966802073520e-01 2.0906190756570346e+01 0.0000000000000000e+00 0.0000000000000000e+00 0.0000000000000000e+00 0.0000000000000000e+00  2.6235978764938228e+01 -5.4949867383451299e+00 0.0000000000000000e+00 -5.4949867383451299e+00 3.4998359797975387e+00 0.0000000000000000e+00 0.0000000000000000e+00 0.0000000000000000e+00 0.0000000000000000e+00  3.0457756439133249e+01 -1.3063313023615331e+01 0.0000000000000000e+00 -1.3063313023615331e+01 -8.7167376372379579e-01 0.0000000000000000e+00 0.0000000000000000e+00 0.0000000000000000e+00 0.0000000000000000e+00  2.2381345321150018e+01 -1.0070656269828028e+01 0.0000000000000000e+00 -1.0070656269828028e+01 1.1558003451615774e-01 0.0000000000000000e+00 0.0000000000000000e+00 0.0000000000000000e+00 0.0000000000000000e+00  1.7572393655548506e+01 2.3589352766776965e+00 0.0000000000000000e+00 2.3589352766776965e+00 6.3065553183514238e+00 0.0000000000000000e+00 0.0000000000000000e+00 0.0000000000000000e+00 0.0000000000000000e+00  1.8910238668532703e+01 9.3673532794223657e+00 0.0000000000000000e+00 9.3673532794223657e+00 1.5000000612970725e+01 0.0000000000000000e+00 0.0000000000000000e+00 0.0000000000000000e+00 0.0000000000000000e+00  6.5092087639931844e+00 1.0990214219877741e+00 0.0000000000000000e+00 1.0990214219877741e+00 1.7457391069022940e+01 0.0000000000000000e+00 0.0000000000000000e+00 0.0000000000000000e+00 0.0000000000000000e+00  -2.9371365889926468e+00 -7.1885176328461746e+00 0.0000000000000000e+00 -7.1885176328461746e+00 2.7350128754888804e+01 0.0000000000000000e+00 0.0000000000000000e+00 0.0000000000000000e+00 0.0000000000000000e+00  -8.8012851278039239e+00 -1.0783079946517528e+01 0.0000000000000000e+00 -1.0783079946517528e+01 2.3111111668287030e+01 0.0000000000000000e+00 0.0000000000000000e+00 0.0000000000000000e+00 0.0000000000000000e+00  7.0827280515503102e+00 1.3431181302285935e+01 0.0000000000000000e+00 1.3431181302285935e+01 1.1277139687190154e+00 0.0000000000000000e+00 0.0000000000000000e+00 0.0000000000000000e+00 0.0000000000000000e+00  2.7909868871911637e+01 -1.0997391671686588e+01 0.0000000000000000e+00 -1.0997391671686588e+01 2.3931999829730799e+00 0.0000000000000000e+00 0.0000000000000000e+00 0.0000000000000000e+00 0.0000000000000000e+00  2.5613661100736653e+01 -1.1799529681269018e+01 0.0000000000000000e+00 -1.1799529681269018e+01 -5.4701762943823864e+00 0.0000000000000000e+00 0.0000000000000000e+00 0.0000000000000000e+00 0.0000000000000000e+00  2.3732418442310127e+01 -9.4015517824909267e+00 0.0000000000000000e+00 -9.4015517824909267e+00 -7.9095920223221527e-01 0.0000000000000000e+00 0.0000000000000000e+00 0.0000000000000000e+00 0.0000000000000000e+00  8.3010384666095405e+00 8.1655308733537324e-02 0.0000000000000000e+00 8.1655308733537324e-02 7.9366589866703681e+00 0.0000000000000000e+00 0.0000000000000000e+00 0.0000000000000000e+00 0.0000000000000000e+00  3.3816755741265090e+00 -4.5532680906310432e+00 0.0000000000000000e+00 -4.5532680906310432e+00 1.7681541704706031e+01 0.0000000000000000e+00 0.0000000000000000e+00 0.0000000000000000e+00 0.0000000000000000e+00  -3.1348603119570946e+01 -1.2411679374938821e+01 0.0000000000000000e+00 -1.2411679374938821e+01 4.4159344496391768e+01 0.0000000000000000e+00 0.0000000000000000e+00 0.0000000000000000e+00 0.0000000000000000e+00  -3.3893366557966367e+01 -8.2396562845161299e+00 0.0000000000000000e+00 -8.2396562845161299e+00 4.7812559119415404e+01 0.0000000000000000e+00 0.0000000000000000e+00 0.0000000000000000e+00 0.0000000000000000e+00  -2.7736818259964995e+01 2.8336139106705445e+00 0.0000000000000000e+00 2.8336139106705445e+00 3.7296461169273748e+01 0.0000000000000000e+00 0.0000000000000000e+00 0.0000000000000000e+00 0.0000000000000000e+00  -1.7890517113106821e+01 1.6531746378777559e+01 0.0000000000000000e+00 1.6531746378777559e+01 2.6692295336999873e+01 0.0000000000000000e+00 0.0000000000000000e+00 0.0000000000000000e+00 0.0000000000000000e+00  -1.1675396011301329e+00 9.0109226778502034e+00 0.0000000000000000e+00 9.0109226778502034e+00 9.4070369225835524e+00 0.0000000000000000e+00 0.0000000000000000e+00 0.0000000000000000e+00 0.0000000000000000e+00  8.8625585010905217e-01 3.5811178487905955e+00 0.0000000000000000e+00 3.5811178487905955e+00 9.8720321454751954e+00 0.0000000000000000e+00 0.0000000000000000e+00 0.0000000000000000e+00 0.0000000000000000e+00  -5.6616721157477365e+01 3.5914778552110427e+01 0.0000000000000000e+00 3.5914778552110427e+01 -1.6117147587601263e+01 0.0000000000000000e+00 0.0000000000000000e+00 0.0000000000000000e+00 0.0000000000000000e+00  6.5923430428118522e+01 4.2483571987747723e+01 0.0000000000000000e+00 4.2483571987747723e+01 2.0149273595474309e+01 0.0000000000000000e+00 0.0000000000000000e+00 0.0000000000000000e+00 0.0000000000000000e+00  9.6103449445728071e+00 1.8358314204482252e+01 0.0000000000000000e+00 1.8358314204482252e+01 8.7229736066102976e+00 0.0000000000000000e+00 0.0000000000000000e+00 0.0000000000000000e+00 0.0000000000000000e+00  2.3413063702959235e+01 -1.3163998727810322e+00 0.0000000000000000e+00 -1.3163998727810322e+00 2.6109850914475000e+01 0.0000000000000000e+00 0.0000000000000000e+00 0.0000000000000000e+00 0.0000000000000000e+00  2.9304672182266607e+01 2.9775141606088273e+00 0.0000000000000000e+00 2.9775141606088273e+00 1.8696755419375151e+01 0.0000000000000000e+00 0.0000000000000000e+00 0.0000000000000000e+00 0.0000000000000000e+00  -1.1805581735118418e+01 1.3778519501588138e+00 0.0000000000000000e+00 1.3778519501588138e+00 -1.9725176026806956e+01 0.0000000000000000e+00 0.0000000000000000e+00 0.0000000000000000e+00 0.0000000000000000e+00  2.9081139757074062e+00 -4.1384319337610137e+01 0.0000000000000000e+00 -4.1384319337610137e+01 -1.2320743313098330e+00 0.0000000000000000e+00 0.0000000000000000e+00 0.0000000000000000e+00 0.0000000000000000e+00  1.6963085077101056e+01 1.9205780442558954e+01 0.0000000000000000e+00 1.9205780442558954e+01 2.1049692934455408e+01 0.0000000000000000e+00 0.0000000000000000e+00 0.0000000000000000e+00 0.0000000000000000e+00  1.8508089121522055e+01 -3.0914629264076030e+01 0.0000000000000000e+00 -3.0914629264076030e+01 2.4693409893201581e+00 0.0000000000000000e+00 0.0000000000000000e+00 0.0000000000000000e+00 0.0000000000000000e+00  2.0759006474917985e+01 1.8504176544032344e+01 0.0000000000000000e+00 1.8504176544032344e+01 2.4380498044208185e+01 0.0000000000000000e+00 0.0000000000000000e+00 0.0000000000000000e+00 0.0000000000000000e+00  1.9701349963417517e+01 4.0681398967145705e+00 0.0000000000000000e+00 4.0681398967145705e+00 2.9601537582495226e+01 0.0000000000000000e+00 0.0000000000000000e+00 0.0000000000000000e+00 0.0000000000000000e+00  2.6497266721299862e+01 1.1042553214300661e+01 0.0000000000000000e+00 1.1042553214300661e+01 3.3730491759074525e+01 0.0000000000000000e+00 0.0000000000000000e+00 0.0000000000000000e+00 0.0000000000000000e+00  -1.3645047281077849