<?xml version="1.0"?>
<VTKFile type="UnstructuredGrid"  version="0.1"  >
<UnstructuredGrid>
<Piece  NumberOfPoints="4961" NumberOfCells="9546">
<Points>
<DataArray  type="Float64"  NumberOfComponents="3"  format="ascii">0 1.5 0  -0 0.09117947244826481 0  0.0220162612375116 0.1293127555043441 0  0.05279126660105127 0.1634918616050268 0  0.09000000000000007 0.1905255888325765 0  0.1320162612375116 0.2092324335849338 0  0.1770037380811163 0.2187948169810202 0  0.2229962619188838 0.2187948169810201 0  0.2679837387624884 0.2092324335849338 0  0.3100000000000001 0.1905255888325765 0  0.3472087333989489 0.1634918616050267 0  0.3779837387624885 0.1293127555043441 0  0.4009800006813722 0.08948206147667603 0  0.4052662851173224 0.07629023443250138 0  0.4200599930048062 0.1082663100071745 0  0.4475409466961425 0.1444168863592189 0  0.4821507162738997 0.173814689612947 0  0.522270987378618 0.1950851111615262 0  0.5660257807239194 0.2072335697337205 0  0.6113691708029376 0.209692016908736 0  0.6561809510911363 0.2023454984290368 0  0.6983657725469559 0.1855375293336648 0  0.7359511198041838 0.1600540315768036 0  0.7671795437981852 0.1270865851906907 0  0.7895690044779959 0.089875012069959 0  0.7989002782867461 0.1116194513821486 0  0.825485631780658 0.1498156710261111 0  0.8592156240140376 0.1818784194956707 0  0.8987093451417441 0.2064950441012706 0  0.9423499175804944 0.222657737339227 0  0.9883506911670961 0.2297047966493422 0  1.034828388826053 0.2273477145954656 0  1.079880208154309 0.2156829903938285 0  1.121661722375201 0.1951881792237927 0  1.158462391387408 0.1667023410626976 0  1.188775591477674 0.1313916894718022 0  1.211360296672653 0.09070184667606328 0  1.225291886488074 0.04629865962039181 0  1.23 0 0  1.38 0 0  1.384807527838563 0.04574057197990705 0  1.399019999318628 0.08948206147667601 0  1.422016261237512 0.1293127555043441 0  1.452791266601051 0.1634918616050268 0  1.49 0.1905255888325765 0  1.532016261237512 0.2092324335849338 0  1.577003738081116 0.2187948169810202 0  1.622996261918884 0.2187948169810201 0  1.667983738762489 0.2092324335849338 0  1.71 0.1905255888325765 0  1.747208733398949 0.1634918616050267 0  1.763158635297163 0.1457777009465727 0  1.8 0.1732050807568878 0  1.842639353457782 0.1915979024630978 0  1.888371034217905 0.1996616316542537 0  1.934729635533386 0.1969615506024416 0  1.979215953207831 0.1836432213760548 0  2.019431718340557 0.1604246385510087 0  2.053208888623796 0.1285575219373079 0  2.078726528064682 0.08975983604009244 0  2.089496128668151 0.06017060156551748 0  2.099019999318628 0.08948206147667601 0  2.122016261237512 0.1293127555043441 0  2.152791266601051 0.1634918616050268 0  2.19 0.1905255888325765 0  2.232016261237511 0.2092324335849338 0  2.277003738081116 0.2187948169810202 0  2.322996261918884 0.2187948169810201 0  2.367983738762488 0.2092324335849338 0  2.41 0.1905255888325765 0  2.447208733398949 0.1634918616050267 0  2.457084733682728 0.1525234520934048 0  2.4821507162739 0.173814689612947 0  2.522270987378618 0.1950851111615262 0  2.56602578072392 0.2072335697337205 0  2.611369170802938 0.209692016908736 0  2.656180951091136 0.2023454984290368 0  2.698365772546956 0.1855375293336648 0  2.735951119804184 0.1600540315768036 0  2.767179543798185 0.1270865851906907 0  2.790590838130901 0.08817671132765556 0  2.805090316699118 0.04514379244431505 0  2.81 0 0  3 0 0  3 1.5 0  0 0.7956998320486358 0  0.4110904441558352 0.08887894789033324 0  0.7773699356874649 0.1101500221202465 0  1.5 1.5 0  3 0.75 0  0 0.4434396522484503 0  3 0.375 0  0 0.2673095623483576 0  0 0.1792445173983112 0  0 0.135211994923288 0  2.25 1.5 0  0.75 1.5 0  1.807676614587897 0.8837271123414687 0  1.04553857344641 0.8979441530181422 0  2.403437242208115 0.8132876225209357 0  0.5070864579510219 1.00719278150819 0  3 1.125 0  1.338035405010484 0.5883821138073757 0  2.625 1.5 0  0.3818338799394321 0.6099209340690734 0  2.067950237167102 0.5767429460037152 0  1.428016626639016 0.9663701540160734 0  1.875 1.5 0  2.136976695697423 1.114248364898298 0  1.125 1.5 0  0.375 1.5 0  0.7837785056474272 0.5924157926009261 0  2.621900904970652 1.121900904970652 0  0 1.147849916024318 0  1.717071692555337 0.550779009763445 0  1.678619011272733 1.204235418149387 0  0.8184015011321764 1.160011833453945 0  2.690771901920515 0.5625 0  1.191553529739931 1.18494431212041 0  2.361743998733192 0.516240498397431 0  2.727335050325185 0.8509414958930873 0  1.061120194703906 0.6196995992969355 0  0.269244960297408 0.8637990218922467 0  0.7609530458041533 0.8768664729047809 0  0.5625 1.286150286226427 0  0.2788879438654684 1.226607136693913 0  2.077535333020466 0.8486969269297693 0  2.4375 1.312474598220077 0  2.809426100237187 1.309426100237187 0  1.544358239139601 0.7389704993474611 0  1.434454912167138 1.210530519498476 0  2.380335199591509 1.061271835208851 0  1.926191456889599 1.252931474193008 0  0.5486378118088926 0.7757115443742588 0  0.5753328044103648 0.454959652232189 0  1.281333603460298 0.3634530521588742 0  0.9959109141311655 1.308173392725312 0  1.507364216928931 0.4358170942512657 0  1.21812632380771 0.7680504611018459 0  0 0.6195697421485431 0  1.3125 1.5 0  0.2892140007400885 0.4197188740688536 0  1.924109453869066 0.4139433366638808 0  0.9329747065756857 0.4375180073994652 0  2.243231692495831 0.684324343130167 0  2.0625 1.5 0  2.124178136191116 0.3821183579116478 0  1.923364695744858 0.7179848099571996 0  2.233034933769442 1.295537230099697 0  1.961794510294921 1.014032929092127 0  0.9133498533613748 0.7509830595402348 0  0 0.9717748740364769 0  0.1875 1.5 0  0 1.323924958012159 0  1.227107007305785 0.9862124750220198 0  1.616617139708145 0.9194004298184476 0  2.811636610329211 1.039737091854792 0  0.1901803394569171 0.5855957240372172 0  2.511165533602297 0.6467174115519351 0  2.536466024168012 0.9507486861843897 0  0.1866521719860137 1.047526440960541 0  2.74946330463778 0.3751246081287475 0  2.543804048982231 0.4145708923164018 0  0.9375 1.5 0  2.4375 1.5 0  0.5625 1.5 0  3 0.5625 0  1.6875 1.5 0  3 0.1875 0  3 0.9375 0  3 1.3125 0  2.8125 1.5 0  1.010044310702206 1.096645863828023 0  2.623488142128434 1.314011651358178 0  2.229558763998408 0.9540962470011799 0  2.845385950960257 0.65625 0  0.7525337220569124 0.4130199536593896 0  1.10537722367743 0.3921278680533664 0  0.6842290971134891 1.039833940778862 0  0.7386374643770518 1.32083913541365 0  1.553387564684306 1.08522930563603 0  1.788789291239656 1.06235950910253 0  1.559809215736361 1.334301807720895 0  1.750410104758408 0.7205088288478614 0  1.672011031024921 0.3842266692686779 0  1.77867146649739 1.349246747510312 0  1.21875 1.355246746101045 0  0.8723426006985372 1.001666865795386 0  1.380631426145093 0.7466576340788873 0  0.4259246536592668 0.3283409344703117 0  0.3444360723462823 1.008028502358495 0  0.6161474109915657 0.6198433096250735 0  0.4265019066463465 1.151756411601508 0  1.403034104827827 1.367717620859348 0  2.874684993382777 0.28125 0  2.874778249279309 0.46875 0  2.071314369495706 1.334001876948522 0  2.3 0.3730371416193449 0  1.322682484320052 1.105857305698365 0  1.563127563616163 0.5828461597844022 0  2.559040610931566 0.7958017532902765 0  1.213306121383676 0.5002133671656324 0  1.916121887065227 0.5659454196943852 0  2.207677378621353 0.5116761937353096 0  0.1257028237453774 1.235887437018238 0  0.7203062975228639 0.7304636720840537 0  0.3921145397364951 0.7663844669080319 0  2.70905347612285 0.7067207479465436 0  2.87968965213058 0.84375 0  0.1396742765227637 0.3714373577111671 0  0.1209675020841686 0.8837373530425563 0  0.1396318055029159 0.7309656161457982 0  0.4039274761094683 1.336239793581983 0  2.676470777350768 0.9877614171414461 0  0.2098223519481562 1.355491059017463 0  0.6161949108813681 0.9073080762684851 0  0.6728981805985057 1.187471545812503 0  0.4313243650936899 0.473428383024358 0  1.317579957488075 0.8752219089473544 0  1.05247475519209 0.7587740171666131 0  0.9218858728134471 0.6117854803862035 0  2.343741823603972 1.201704901656183 0  2.483180588903391 1.163054990844907 0  1.336494261441537 0.237261632693729 0  2.096334636915305 0.983917300563715 0  2.059942810014369 0.7131710752499992 0  1.940957218750955 0.8535106616369695 0  0.2735884026449029 0.6956028768230409 0  2.3791553829517 0.6794620539851567 0  2.443566922502795 0.3224565874575337 0  2.21140571429892 0.8179437442036444 0  2.863880028189143 1.175018869261394 0  1.212122991296861 0.6341965806889284 0  0.8702381850023826 1.37471255674248 0  0.4252003220264352 0.89843828480276 0  2.714126143737636 1.217200861470203 0  2.34375 1.406237299110039 0  2.71875 1.406237608026668 0  2.903224894283775 1.403224894283775 0  2.53125 1.5 0  1.444637821860123 0.3169971434781329 0  1.307097209138961 1.253815337580837 0  1.806074818262501 0.3310941379078186 0  0.09375 1.5 0  1.96875 1.5 0  1.467196512253796 0.8429542418758076 0  0.7811182225539175 0.2860230046382459 0  0.8880470276332622 0.8755399020562793 0  2.004554624687214 1.142507703833496 0  1.901808674873915 1.376717053991818 0  1.80956117606876 1.192202387775541 0  0.65625 1.5 0  2.256163989601168 1.076312782066936 0  2.35728348455407 0.9340561611988477 0  0.5508073343087652 1.161974855816299 0  1.822201850254356 0.484799098822588 0  0.6415475671733072 0.3394071993736185 0  0.6854011703162045 0.5171310296285601 0  2.010601404748645 0.3128962050875828 0  1.458109478391155 0.6494112449225909 0  1.556659288882675 1.21212759481645 0  2.15625 1.5 0  1.102952541966123 1.010721102324488 0  3 0.09375 0  2.905 0 0  1.698833571793874 0.8302602504158462 0  0.1128136071602732 0.4908067814983783 0  1.375215724596343 0.4593979824254396 0  1.667188501011557 1.033651962891267 0  0.5152717989473731 0.5573202673988191 0  0.4756630816937197 0.6823252715484635 0  2.485944291803511 0.5248037876852512 0  0.609375 1.393075143113214 0  1.657554629504312 0.6506084627130724 0  1.180547956106694 0.2992004577305749 0  1.040994897946075 0.4976964206623483 0  2.883588023402782 0.1625217501240843 0  1.437965738677728 1.09476840787
[...]
<PointData  Tensors="f_1176"> 
<DataArray  type="Float64"  Name="f_1176"  NumberOfComponents="9" format="ascii">-3.1652179780491925e+00 1.8216619565869130e+00 0.0000000000000000e+00 1.8216619565869130e+00 -1.1722144214726232e+01 0.0000000000000000e+00 0.0000000000000000e+00 0.0000000000000000e+00 0.0000000000000000e+00  2.8080277274568637e+01 -3.4978050149815909e-01 0.0000000000000000e+00 -3.4978050149815909e-01 2.9378980631666334e+01 0.0000000000000000e+00 0.0000000000000000e+00 0.0000000000000000e+00 0.0000000000000000e+00  2.6021909516861193e+01 -5.7247181289618643e-01 0.0000000000000000e+00 -5.7247181289618643e-01 2.6737130813183391e+01 0.0000000000000000e+00 0.0000000000000000e+00 0.0000000000000000e+00 0.0000000000000000e+00  6.2074338232592503e+01 -1.7800991380612320e+01 0.0000000000000000e+00 -1.7800991380612320e+01 -4.1432398673594744e+00 0.0000000000000000e+00 0.0000000000000000e+00 0.0000000000000000e+00 0.0000000000000000e+00  9.5198444820938803e+01 -6.2308590358646072e+01 0.0000000000000000e+00 -6.2308590358646072e+01 -5.3523479396496995e+01 0.0000000000000000e+00 0.0000000000000000e+00 0.0000000000000000e+00 0.0000000000000000e+00  8.2035859501896212e+01 -4.2033168762174682e+01 0.0000000000000000e+00 -4.2033168762174682e+01 -2.2231301674819520e+01 0.0000000000000000e+00 0.0000000000000000e+00 0.0000000000000000e+00 0.0000000000000000e+00  3.0511235388943820e+01 4.0296540425815103e+01 0.0000000000000000e+00 4.0296540425815103e+01 1.1453708282071918e+01 0.0000000000000000e+00 0.0000000000000000e+00 0.0000000000000000e+00 0.0000000000000000e+00  4.0133562716710912e+01 1.0112600458290855e+02 0.0000000000000000e+00 1.0112600458290855e+02 -3.7819019892171886e+00 0.0000000000000000e+00 0.0000000000000000e+00 0.0000000000000000e+00 0.0000000000000000e+00  2.2516819171137968e+01 3.9687954804170502e+01 0.0000000000000000e+00 3.9687954804170502e+01 2.6179692457013505e+01 0.0000000000000000e+00 0.0000000000000000e+00 0.0000000000000000e+00 0.0000000000000000e+00  -5.1515499421340436e+01 -1.2179169084920328e+01 0.0000000000000000e+00 -1.2179169084920328e+01 1.0809305356952810e+02 0.0000000000000000e+00 0.0000000000000000e+00 0.0000000000000000e+00 0.0000000000000000e+00  -1.1696779616489049e+02 -6.0941074454943511e-02 0.0000000000000000e+00 -6.0941074454943511e-02 1.6283287444070783e+02 0.0000000000000000e+00 0.0000000000000000e+00 0.0000000000000000e+00 0.0000000000000000e+00  -4.6647270670778163e+01 4.9800220161007713e+00 0.0000000000000000e+00 4.9800220161007713e+00 8.9088637811789965e+01 0.0000000000000000e+00 0.0000000000000000e+00 0.0000000000000000e+00 0.0000000000000000e+00  1.9635372259020926e+01 -4.5083220218923827e+00 0.0000000000000000e+00 -4.5083220218923827e+00 1.6456216247113090e+01 0.0000000000000000e+00 0.0000000000000000e+00 0.0000000000000000e+00 0.0000000000000000e+00  2.2252839050725338e+01 -9.2159094078226578e-01 0.0000000000000000e+00 -9.2159094078226578e-01 1.8654093426436720e+01 0.0000000000000000e+00 0.0000000000000000e+00 0.0000000000000000e+00 0.0000000000000000e+00  5.0748907019168129e+01 -9.7074771682150895e-01 0.0000000000000000e+00 -9.7074771682150895e-01 1.5388959107851328e+00 0.0000000000000000e+00 0.0000000000000000e+00 0.0000000000000000e+00 0.0000000000000000e+00  7.9794552782069431e+01 6.7632941098153072e+00 0.0000000000000000e+00 6.7632941098153072e+00 -3.5286097360586410e+01 0.0000000000000000e+00 0.0000000000000000e+00 0.0000000000000000e+00 0.0000000000000000e+00  -7.2261227957725427e-01 4.8230487586050659e+00 0.0000000000000000e+00 4.8230487586050659e+00 2.7557227531768746e+01 0.0000000000000000e+00 0.0000000000000000e+00 0.0000000000000000e+00 0.0000000000000000e+00  -5.6182433844251669e+01 9.5519241529474741e+01 0.0000000000000000e+00 9.5519241529474741e+01 9.1064087864413821e+01 0.0000000000000000e+00 0.0000000000000000e+00 0.0000000000000000e+00 0.0000000000000000e+00  -3.6987039778904993e+01 8.2622499677718125e+01 0.0000000000000000e+00 8.2622499677718125e+01 8.2132402000885179e+01 0.0000000000000000e+00 0.0000000000000000e+00 0.0000000000000000e+00 0.0000000000000000e+00  -1.4924851115254205e+01 -1.5433195078482273e+01 0.0000000000000000e+00 -1.5433195078482273e+01 6.3791104048125334e+01 0.0000000000000000e+00 0.0000000000000000e+00 0.0000000000000000e+00 0.0000000000000000e+00  -4.2636447861041091e+01 -5.1791095926241177e+01 0.0000000000000000e+00 -5.1791095926241177e+01 7.7398489774344824e+01 0.0000000000000000e+00 0.0000000000000000e+00 0.0000000000000000e+00 0.0000000000000000e+00  6.4137767360080584e+00 -4.0764622456393703e+01 0.0000000000000000e+00 -4.0764622456393703e+01 4.2432768127052427e+01 0.0000000000000000e+00 0.0000000000000000e+00 0.0000000000000000e+00 0.0000000000000000e+00  5.1378435974901869e+01 -5.7493228931112128e+00 0.0000000000000000e+00 -5.7493228931112128e+00 -6.2124586963195103e+00 0.0000000000000000e+00 0.0000000000000000e+00 0.0000000000000000e+00 0.0000000000000000e+00  6.3103273392987369e+01 5.7720063349291428e-01 0.0000000000000000e+00 5.7720063349291428e-01 -2.2373888112220261e+01 0.0000000000000000e+00 0.0000000000000000e+00 0.0000000000000000e+00 0.0000000000000000e+00  2.0285053854424724e+01 2.4570842900706360e+00 0.0000000000000000e+00 2.4570842900706360e+00 2.1510636732183858e+01 0.0000000000000000e+00 0.0000000000000000e+00 0.0000000000000000e+00 0.0000000000000000e+00  1.4889705459080955e+00 1.2626954812324933e+00 0.0000000000000000e+00 1.2626954812324933e+00 3.3323881722603723e+01 0.0000000000000000e+00 0.0000000000000000e+00 0.0000000000000000e+00 0.0000000000000000e+00  -5.6840581556222823e+01 -4.0108813529121861e+00 0.0000000000000000e+00 -4.0108813529121861e+00 9.7159806604630063e+01 0.0000000000000000e+00 0.0000000000000000e+00 0.0000000000000000e+00 0.0000000000000000e+00  -1.0990850771096471e+02 3.2755579093719945e+01 0.0000000000000000e+00 3.2755579093719945e+01 1.6601610262220041e+02 0.0000000000000000e+00 0.0000000000000000e+00 0.0000000000000000e+00 0.0000000000000000e+00  -3.5978018533980574e+01 2.4727869679493914e+01 0.0000000000000000e+00 2.4727869679493914e+01 9.7757262499994468e+01 0.0000000000000000e+00 0.0000000000000000e+00 0.0000000000000000e+00 0.0000000000000000e+00  1.8075292418922299e+01 -3.5522338917602909e+01 0.0000000000000000e+00 -3.5522338917602909e+01 4.0794887654931323e+01 0.0000000000000000e+00 0.0000000000000000e+00 0.0000000000000000e+00 0.0000000000000000e+00  1.9440164241406592e+01 -1.0457028136168252e+02 0.0000000000000000e+00 -1.0457028136168252e+02 -7.3434728554851469e+00 0.0000000000000000e+00 0.0000000000000000e+00 0.0000000000000000e+00 0.0000000000000000e+00  9.0683010633661920e-01 -9.4180932266759640e+00 0.0000000000000000e+00 -9.4180932266759640e+00 1.6093368413885909e+01 0.0000000000000000e+00 0.0000000000000000e+00 0.0000000000000000e+00 0.0000000000000000e+00  8.8470597558988942e+01 7.4634616091283632e+01 0.0000000000000000e+00 7.4634616091283632e+01 -6.4160845306033750e+01 0.0000000000000000e+00 0.0000000000000000e+00 0.0000000000000000e+00 0.0000000000000000e+00  8.6845549817872993e+01 5.6085348148901154e+01 0.0000000000000000e+00 5.6085348148901154e+01 -3.6818150691691862e+01 0.0000000000000000e+00 0.0000000000000000e+00 0.0000000000000000e+00 0.0000000000000000e+00  1.1462755459464629e+01 1.3169494124929981e+01 0.0000000000000000e+00 1.3169494124929981e+01 3.4247353114161740e+01 0.0000000000000000e+00 0.0000000000000000e+00 0.0000000000000000e+00 0.0000000000000000e+00  -6.9816282069927851e+01 5.2582686138295557e+01 0.0000000000000000e+00 5.2582686138295557e+01 1.1655166416142916e+02 0.0000000000000000e+00 0.0000000000000000e+00 0.0000000000000000e+00 0.0000000000000000e+00  -7.1966316603922735e+01 1.0647141915973826e+02 0.0000000000000000e+00 1.0647141915973826e+02 1.0506379504133302e+02 0.0000000000000000e+00 0.0000000000000000e+00 0.0000000000000000e+00 0.0000000000000000e+00  -3.3458630291234456e+01 1.2909331530305806e+02 0.0000000000000000e+00 1.2909331530305806e+02 7.7709226863113116e+01 0.0000000000000000e+00 0.0000000000000000e+00 0.0000000000000000e+00 0.0000000000000000e+00  1.4978271970098534e+01 -8.0078818161187844e+00 0.0000000000000000e+00 -8.0078818161187844e+00 4.4901915668378528e+01 0.0000000000000000e+00 0.0000000000000000e+00 0.0000000000000000e+00 0.0000000000000000e+00  2.2001029870863054e+01 -2.2583808009840181e+00 0.0000000000000000e+00 -2.2583808009840181e+00 1.6611907211973907e+01 0.0000000000000000e+00 0.0000000000000000e+00 0.0000000000000000e+00 0.0000000000000000e+00  3.8708819743057568e+01 2.4056331535368564e+01 0.0000000000000000e+00 2.4056331535368564e+01 4.9828866020137008e+00 0.0000000000000000e+00 0.0000000000000000e+00 0.0000000000000000e+00 0.0000000000000000e+00  2.8197241229258967e+01 1.7556726687542220e+01 0.0000000000000000e+00 1.7556726687542220e+01 1.3462496901752067e+01 0.0000000000000000e+00 0.0000000000000000e+00 0.0000000000000000e+00 0.0000000000000000e+00  -2.4686473401564896e+01 -1.2069779266957209e+01 0.0000000000000000e+00 -1.2069779266957209e+01 6.2356599411415601e+01 0.0000000000000000e+00 0.0000000000000000e+00 0.0000000000000000e+00 0.0000000000000000e+00  -1.0542450018411964e+02 9.5499512319524058e+00 0.0000000000000000e+00 9.5499512319524058e+00 1.2477653353775105e+02 0.0000000000000000e+00 0.0000000000000000e+00 0.0000000000000000e+00 0.0000000000000000e+00  -6.2314315988364179e+01 1.8882020259205952e+01 0.0000000000000000e+00 1.8882020259205952e+01 1.0945586527551602e+02 0.0000000000000000e+00 0.0000000000000000e+00 0.0000000000000000e+00 0.0000000000000000e+00  6.1045644746424594e+00 -3.6166549683786755e+01 0.0000000000000000e+00 -3.6166549683786755e+01 4.1789201476681569e+01 0.0000000000000000e+00 0.0000000000000000e+00 0.0000000000000000e+00 0.0000000000000000e+00  7.2155033746217612e+00 -8.6731594241718369e+01 0.0000000000000000e+00 -8.6731594241718369e+01 1.0918829947076748e+01 0.0000000000000000e+00 0.0000000000000000e+00 0.0000000000000000e+00 0.0000000000000000e+00  4.7576276868989318e+01 -3.7419676316456432e+01 0.0000000000000000e+00 -3.7419676316456432e+01 -7.3257455420474775e+00 0.0000000000000000e+00 0.0000000000000000e+00 0.0000000000000000e+00 0.0000000000000000e+00  7.6077178921156616e+01 5.8363154409502187e+01 0.0000000000000000e+00 5.8363154409502187e+01 -4.2798649688267389e+01 0.0000000000000000e+00 0.0000000000000000e+00 0.0000000000000000e+00 0.0000000000000000e+00  1.1383767910722395e+02 7.2697581362157848e+01 0.0000000000000000e+00 7.2697581362157848e+01 -7.4234697677225256e+01 0.0000000000000000e+00 0.0000000000000000e+00 0.0000000000000000e+00 0.0000000000000000e+00  5.9674464796016437e+01 1.9016118954928899e+01 0.0000000000000000e+00 1.9016118954928899e+01 -1.7267227258528948e+01 0.0000000000000000e+00 0.0000000000000000e+00 0.0000000000000000e+00 0.0000000000000000e+00  2.3124566104452281e+01 1.1098835758448363e+01 0.0000000000000000e+00 1.1098835758448363e+01 1.9137240949618921e+01 0.0000000000000000e+00 0.0000000000000000e+00 0.0000000000000000e+00 0.0000000000000000e+00  -1.7767652541079588e+01 5.8546984355408718e+00 0.0000000000000000e+00 5.8546984355408700e+00 6.3676033669764742e+01 0.0000000000000000e+00 0.0000000000000000e+00 0.0000000000000000e+00 0.0000000000000000e+00  3.8474873952581049e+01 -5.9410663852592627e+01 0.0000000000000000e+00 -5.9410663852592627e+01 1.3374683904321618e+01 0.0000000000000000e+00 0.0000000000000000e+00 0.0000000000000000e+00 0.0000000000000000e+00  2.3891880626450742e+01 -1.0678774082909594e+02 0.0000000000000000e+00 -1.0678774082909594e+02 -3.2180074764077121e-01 0.0000000000000000e+00 0.0000000000000000e+00 0.0000000000000000e+00 0.0000000000000000e+00  3.1505011758006876e+01 -1.8133047026235253e+01 0.0000000000000000e+00 -1.8133047026235253e+01 -4.5518451917073310e+00 0.0000000000000000e+00 0.0000000000000000e+00 0.0000000000000000e+00 0.0000000000000000e+00  7.3506015914047993e+01 5.3104237420646974e+01 0.0000000000000000e+00 5.3104237420646974e+01 -4.8392562059129247e+01 0.0000000000000000e+00 0.0000000000000000e+00 0.0000000000000000e+00 0.0000000000000000e+00  8.0477914586918160e+01 4.0086411750792927e+01 0.0000000000000000e+00 4.0086411750792927e+01 -5.6463876103618112e+01 0.0000000000000000e+00 0.0000000000000000e+00 0.0000000000000000e+00 0.0000000000000000e+00  5.9354105149744065e+01 4.3675177941617109e+00 0.0000000000000000e+00 4.3675177941617109e+00 -1.4749090077315339e+01 0.0000000000000000e+00 0.0000000000000000e+00 0.0000000000000000e+00 0.0000000000000000e+00  2.0380003177404998e+01 1.3379256232278780e+00 0.0000000000000000e+00 1.3379256232278780e+00 1.8865035447268241e+01 0.0000000000000000e+00 0.0000000000000000e+00 0.0000000000000000e+00 0.0000000000000000e+00  2.1682224547121823e+01 7.9098610491781474e-01 0.0000000000000000e+00 7.9098610491781474e-01 2.2172081344321107e+01 0.0000000000000000e+00 0.0000000000000000e+00 0.0000000000000000e+00 0.0000000000000000e+00  2.2241293875402647e+01 -4.6020552195984532e-01 0.0000000000000000e+00 -4.6020552195984532e-01 1.9641443059319815e+01 0.0000000000000000e+00 0.0000000000000000e+00 0.0000000000000000e+00 0.0000000000000000e+00  1.0909244573480862e+01 -1.0241997926382698e+01 0.0000000000000000e+00 -1.0241997926382698e+01 2.7101831373850789e+01 0.0000000000000000e+00 0.0000000000000000e+00 0.0000000000000000e+00 0.0000000000000000e+00  5.7268220227285987e+01 -1.7879251032491588e+01 0.0000000000000000e+00 -1.7879251032491588e+01 -2.6995921131249073e+01 0.0000000000000000e+00 0.0000000000000000e+00 0.0000000000000000e+00 0.0000000000000000e+00  9.8566766925121058e+01 -7.7995351543864118e+01 0.0000000000000000e+00 -7.7995351543864118e+01 -7.2399667693935442e+01 0.0000000000000000e+00 0.0000000000000000e+00 0.0000000000000000e+00 0.0000000000000000e+00  7.3048616608037207e+01 -6.6822060189477710e+01 0.0000000000000000e+00 -6.6822060189477710e+01 -5.4446827671310672e+01 0.0000000000000000e+00 0.0000000000000000e+00 0.0000000000000000e+00 0.0000000000000000e+00  2.8596348555610916e+01 2.6875991487529539e+01 0.0000000000000000e+00 2.6875991487529539e+01 -5.4736787350885558e+00 0.0000000000000000e+00 0.0000000000000000e+00 0.0000000000000000e+00 0.0000000000000000e+00  2.1137339538774608e+01 6.0688553326074782e+01 0.0000000000000000e+00 6.0688553326074782e+01 1.6620597689975153e+01 0.0000000000000000e+00 0.0000000000000000e+00 0.0000000000000000e+00 0.0000000000000000e+00  -2.0317467306647991e+01 -9.5944055083166191e+00 0.0000000000000000e+00 -9.5944055083166191e+00 4.3702026585363669e+01 0.0000000000000000e+00 0.0000000000000000e+00 0.0000000000000000e+00 0.0000000000000000e+00  -9.0032790813319224e+01 -4.7599317930653307e+01 0.0000000000000000e+00 -4.7599317930653307e+01 1.1626013292312579e+02 0.0000000000000000e+00 0.0000000000000000e+00 0.0000000000000000e+00 0.0000000000000000e+00  -3.4911140195033646e+01 -5.7921486999365058e+01 0.0000000000000000e+00 -5.7921486999365058e+01 4.8999478121626467e+01 0.0000000000000000e+00 0.0000000000000000e+00 0.0000000000000000e+00 0.0000000000000000e+00  2.4752491396795190e+01 -2.3648666838167554e+01 0.0000000000000000e+00 -2.3648666838167554e+01 2.3544277016722745e+01 0.0000000000000000e+00 0.0000000000000000e+00 0.0000000000000000e+00 0.0000000000000000e+00  7.7442109340112907e+01 -5.7017910171617558e+01 0.0000000000000000e+00 -5.7017910171617558e+01 -3.8863185705670496e+01 0.0000000000000000e+00 0.0000000000000000e+00 0.0000000000000000e+00 0.0000000000000000e+00  8.5591913408275843e+01 -8.3886530923589518e+01 0.0000000000000000e+00 -8.3886530923589518e+01 -7.8459139131807262e+01 0.0000000000000000e+00 0.0000000000000000e+00 0.0000000000000000e+00 0.0000000000000000e+00  5.2849116160735939e+01 -4.1099399715748589e+01 0.0000000000000000e+00 -4.1099399715748589e+01 -2.4431348729571379e+01 0.0000000000000000e+00 0.0000000000000000e+00 0.0000000000000000e+00 0.0000000000000000e+00  2.2050412664635619e+00 3.1073119117449305e-01 0.0000000000000000e+00 3.1073119117449305e-01 8.1588074405243383e+00 0.0000000000000000e+00 0.0000000000000000e+00 0.0000000000000000e+00 0.0000000000000000e+00  -3.3804230416012253e+01 -3.6978417032460477e+01 0.0000000000000000e+00 -3.6978417032460477e+01 6.4974237913162739e+01 0.0000000000000000e+00 0.0000000000000000e+00 0.0000000000000000e+00 0.0000000000000000e+00  -2.0826846418797024e+02 -8.5447757764729218e+01 0.0000000000000000e+00 -8.5447757764729218e+01 2.0867310844350928e+02 0.0000000000000000e+00 0.0000000000000000e+00 0.0000000000000000e+00 0.0000000000000000e+00  -2.5109079201661757e+02 -3.7942430209648982e+01 0.0000000000000000e+00 -3.7942430209648982e+01 2.5016799185369209e+02 0.0000000000000000e+00 0.0000000000000000e+00 0.0000000000000000e+00 0.0000000000000000e+00  -1.7941350654791543e+02 2.1170768933306565e+01 0.0000000000000000e+00 2.1170768933306565e+01 2.0114276032801715e+02 0.0000000000000000e+00 0.0000000000000000e+00 0.0000000000000000e+00 0.0000000000000000e+00  -8.8745891350776816e+01 7.2153248314777713e+01 0.0000000000000000e+00 7.2153248314777713e+01 8.6452994766667857e+01 0.0000000000000000e+00 0.0000000000000000e+00 0.0000000000000000e+00 0.0000000000000000e+00  -1.2388569404393543e+01 3.2020932575931724e+01 0.0000000000000000e+00 3.2020932575931724e+01 1.9906329843018092e+01 0.0000000000000000e+00 0.0000000000000000e+00 0.0000000000000000e+00 0.0000000000000000e+00  -6.1628223627722446e-02 6.0572742868064928e+00 0.0000000000000000e+00 6.0572742868064928e+00 1.4347770050601024e+01 0.0000000000000000e+00 0.0000000000000000e+00 0.0000000000000000e+00 0.0000000000000000e+00  -2.2969588242703273e+02 1.2801386800690506e+02 0.0000000000000000e+00 1.2801386800690506e+02 -2.6668851021549244e+01 0.0000000000000000e+00 0.0000000000000000e+00 0.0000000000000000e+00 0.0000000000000000e+00  4.2241205922860644e+02 2.6408923141834623e+02 0.0000000000000000e+00 2.6408923141834623e+02 1.0437088584698391e+02 0.0000000000000000e+00 0.0000000000000000e+00 0.0000000000000000e+00 0.0000000000000000e+00  1.1693384450478874e+01 1.1239608277384886e+02 0.0000000000000000e+00 1.1239608277384886e+02 3.1997634583603873e+00 0.0000000000000000e+00 0.0000000000000000e+00 0.0000000000000000e+00 0.0000000000000000e+00  2.5184127959098301e+01 -1.6127034382842660e+00 0.0000000000000000e+00 -1.6127034382842660e+00 2.1444808482216274e+01 0.0000000000000000e+00 0.0000000000000000e+00 0.0000000000000000e+00 0.0000000000000000e+00  3.6032525545452266e+01 6.2522498399666073e+00 0.0000000000000000e+00 6.2522498399666073e+00 1.1721226548450540e+01 0.0000000000000000e+00 0.0000000000000000e+00 0.0000000000000000e+00 0.0000000000000000e+00  -2.3881081317241311e+01 5.7674453652756315e+00 0.0000000000000000e+00 5.7674453652756315e+00 -1.9794118872812334e+01 0.0000000000000000e+00 0.0000000000000000e+00 0.0000000000000000e+00 0.0000000000000000e+00  1.0694471552741236e+01 -2.1374092346593068e+02 0.0000000000000000e+00 -2.1374092346593068e+02 -6.1490544002730809e+00 0.0000000000000000e+00 0.0000000000000000e+00 0.0000000000000000e+00 0.0000000000000000e+00  1.3667289964525590e+01 1.1649790121587161e+02 0.0000000000000000e+00 1.1649790121587161e+02 2.2853365254198945e+01 0.0000000000000000e+00 0.0000000000000000e+00 0.0000000000000000e+00 0.0000000000000000e+00  1.1262203106536515e+02 -9.2075011105237394e+01 0.0000000000000000e+00 -9.2075011105237394e+01 1.7755131400147608e+01 0.0000000000000000e+00 0.0000000000000000e+00 0.0000000000000000e+00 0.0000000000000000e+00  2.1460537831710738e+01 1.1887740213355262e+02 0.0000000000000000e+00 1.1887740213355262e+02 2.3475975209551290e+01 0.0000000000000000e+00 0.0000000000000000e+00 0.0000000000000000e+00 0.0000000000000000e+00  1.3509956537956576e+01 3.9801500759143508e+01 0.0000000000000000e+00 3.9801500759143508e+01 3.2401432821244434e+01 0.0000000000000000e+00 0.0000000000000000e+00 0.0000000000000000e+00 0.0000000000000000e+00  2.7651224832003646e+01 -1.8662922503498863e-01 0.0000000000000000e+00 -1.8662922503498863e-01 2.6004480188269270e+01 0.0000000000000000e+00 0.0000000000000000e+00 0.0000000000000000e+00