<?xml version="1.0"?>
<VTKFile type="UnstructuredGrid"  version="0.1"  >
<UnstructuredGrid>
<Piece  NumberOfPoints="4961" NumberOfCells="9546">
<Points>
<DataArray  type="Float64"  NumberOfComponents="3"  format="ascii">0 1.5 0  -0 0.09117947244826481 0  0.0220162612375116 0.1293127555043441 0  0.05279126660105127 0.1634918616050268 0  0.09000000000000007 0.1905255888325765 0  0.1320162612375116 0.2092324335849338 0  0.1770037380811163 0.2187948169810202 0  0.2229962619188838 0.2187948169810201 0  0.2679837387624884 0.2092324335849338 0  0.3100000000000001 0.1905255888325765 0  0.3472087333989489 0.1634918616050267 0  0.3779837387624885 0.1293127555043441 0  0.4009800006813722 0.08948206147667603 0  0.4052662851173224 0.07629023443250138 0  0.4200599930048062 0.1082663100071745 0  0.4475409466961425 0.1444168863592189 0  0.4821507162738997 0.173814689612947 0  0.522270987378618 0.1950851111615262 0  0.5660257807239194 0.2072335697337205 0  0.6113691708029376 0.209692016908736 0  0.6561809510911363 0.2023454984290368 0  0.6983657725469559 0.1855375293336648 0  0.7359511198041838 0.1600540315768036 0  0.7671795437981852 0.1270865851906907 0  0.7895690044779959 0.089875012069959 0  0.7989002782867461 0.1116194513821486 0  0.825485631780658 0.1498156710261111 0  0.8592156240140376 0.1818784194956707 0  0.8987093451417441 0.2064950441012706 0  0.9423499175804944 0.222657737339227 0  0.9883506911670961 0.2297047966493422 0  1.034828388826053 0.2273477145954656 0  1.079880208154309 0.2156829903938285 0  1.121661722375201 0.1951881792237927 0  1.158462391387408 0.1667023410626976 0  1.188775591477674 0.1313916894718022 0  1.211360296672653 0.09070184667606328 0  1.225291886488074 0.04629865962039181 0  1.23 0 0  1.38 0 0  1.384807527838563 0.04574057197990705 0  1.399019999318628 0.08948206147667601 0  1.422016261237512 0.1293127555043441 0  1.452791266601051 0.1634918616050268 0  1.49 0.1905255888325765 0  1.532016261237512 0.2092324335849338 0  1.577003738081116 0.2187948169810202 0  1.622996261918884 0.2187948169810201 0  1.667983738762489 0.2092324335849338 0  1.71 0.1905255888325765 0  1.747208733398949 0.1634918616050267 0  1.763158635297163 0.1457777009465727 0  1.8 0.1732050807568878 0  1.842639353457782 0.1915979024630978 0  1.888371034217905 0.1996616316542537 0  1.934729635533386 0.1969615506024416 0  1.979215953207831 0.1836432213760548 0  2.019431718340557 0.1604246385510087 0  2.053208888623796 0.1285575219373079 0  2.078726528064682 0.08975983604009244 0  2.089496128668151 0.06017060156551748 0  2.099019999318628 0.08948206147667601 0  2.122016261237512 0.1293127555043441 0  2.152791266601051 0.1634918616050268 0  2.19 0.1905255888325765 0  2.232016261237511 0.2092324335849338 0  2.277003738081116 0.2187948169810202 0  2.322996261918884 0.2187948169810201 0  2.367983738762488 0.2092324335849338 0  2.41 0.1905255888325765 0  2.447208733398949 0.1634918616050267 0  2.457084733682728 0.1525234520934048 0  2.4821507162739 0.173814689612947 0  2.522270987378618 0.1950851111615262 0  2.56602578072392 0.2072335697337205 0  2.611369170802938 0.209692016908736 0  2.656180951091136 0.2023454984290368 0  2.698365772546956 0.1855375293336648 0  2.735951119804184 0.1600540315768036 0  2.767179543798185 0.1270865851906907 0  2.790590838130901 0.08817671132765556 0  2.805090316699118 0.04514379244431505 0  2.81 0 0  3 0 0  3 1.5 0  0 0.7956998320486358 0  0.4110904441558352 0.08887894789033324 0  0.7773699356874649 0.1101500221202465 0  1.5 1.5 0  3 0.75 0  0 0.4434396522484503 0  3 0.375 0  0 0.2673095623483576 0  0 0.1792445173983112 0  0 0.135211994923288 0  2.25 1.5 0  0.75 1.5 0  1.807676614587897 0.8837271123414687 0  1.04553857344641 0.8979441530181422 0  2.403437242208115 0.8132876225209357 0  0.5070864579510219 1.00719278150819 0  3 1.125 0  1.338035405010484 0.5883821138073757 0  2.625 1.5 0  0.3818338799394321 0.6099209340690734 0  2.067950237167102 0.5767429460037152 0  1.428016626639016 0.9663701540160734 0  1.875 1.5 0  2.136976695697423 1.114248364898298 0  1.125 1.5 0  0.375 1.5 0  0.7837785056474272 0.5924157926009261 0  2.621900904970652 1.121900904970652 0  0 1.147849916024318 0  1.717071692555337 0.550779009763445 0  1.678619011272733 1.204235418149387 0  0.8184015011321764 1.160011833453945 0  2.690771901920515 0.5625 0  1.191553529739931 1.18494431212041 0  2.361743998733192 0.516240498397431 0  2.727335050325185 0.8509414958930873 0  1.061120194703906 0.6196995992969355 0  0.269244960297408 0.8637990218922467 0  0.7609530458041533 0.8768664729047809 0  0.5625 1.286150286226427 0  0.2788879438654684 1.226607136693913 0  2.077535333020466 0.8486969269297693 0  2.4375 1.312474598220077 0  2.809426100237187 1.309426100237187 0  1.544358239139601 0.7389704993474611 0  1.434454912167138 1.210530519498476 0  2.380335199591509 1.061271835208851 0  1.926191456889599 1.252931474193008 0  0.5486378118088926 0.7757115443742588 0  0.5753328044103648 0.454959652232189 0  1.281333603460298 0.3634530521588742 0  0.9959109141311655 1.308173392725312 0  1.507364216928931 0.4358170942512657 0  1.21812632380771 0.7680504611018459 0  0 0.6195697421485431 0  1.3125 1.5 0  0.2892140007400885 0.4197188740688536 0  1.924109453869066 0.4139433366638808 0  0.9329747065756857 0.4375180073994652 0  2.243231692495831 0.684324343130167 0  2.0625 1.5 0  2.124178136191116 0.3821183579116478 0  1.923364695744858 0.7179848099571996 0  2.233034933769442 1.295537230099697 0  1.961794510294921 1.014032929092127 0  0.9133498533613748 0.7509830595402348 0  0 0.9717748740364769 0  0.1875 1.5 0  0 1.323924958012159 0  1.227107007305785 0.9862124750220198 0  1.616617139708145 0.9194004298184476 0  2.811636610329211 1.039737091854792 0  0.1901803394569171 0.5855957240372172 0  2.511165533602297 0.6467174115519351 0  2.536466024168012 0.9507486861843897 0  0.1866521719860137 1.047526440960541 0  2.74946330463778 0.3751246081287475 0  2.543804048982231 0.4145708923164018 0  0.9375 1.5 0  2.4375 1.5 0  0.5625 1.5 0  3 0.5625 0  1.6875 1.5 0  3 0.1875 0  3 0.9375 0  3 1.3125 0  2.8125 1.5 0  1.010044310702206 1.096645863828023 0  2.623488142128434 1.314011651358178 0  2.229558763998408 0.9540962470011799 0  2.845385950960257 0.65625 0  0.7525337220569124 0.4130199536593896 0  1.10537722367743 0.3921278680533664 0  0.6842290971134891 1.039833940778862 0  0.7386374643770518 1.32083913541365 0  1.553387564684306 1.08522930563603 0  1.788789291239656 1.06235950910253 0  1.559809215736361 1.334301807720895 0  1.750410104758408 0.7205088288478614 0  1.672011031024921 0.3842266692686779 0  1.77867146649739 1.349246747510312 0  1.21875 1.355246746101045 0  0.8723426006985372 1.001666865795386 0  1.380631426145093 0.7466576340788873 0  0.4259246536592668 0.3283409344703117 0  0.3444360723462823 1.008028502358495 0  0.6161474109915657 0.6198433096250735 0  0.4265019066463465 1.151756411601508 0  1.403034104827827 1.367717620859348 0  2.874684993382777 0.28125 0  2.874778249279309 0.46875 0  2.071314369495706 1.334001876948522 0  2.3 0.3730371416193449 0  1.322682484320052 1.105857305698365 0  1.563127563616163 0.5828461597844022 0  2.559040610931566 0.7958017532902765 0  1.213306121383676 0.5002133671656324 0  1.916121887065227 0.5659454196943852 0  2.207677378621353 0.5116761937353096 0  0.1257028237453774 1.235887437018238 0  0.7203062975228639 0.7304636720840537 0  0.3921145397364951 0.7663844669080319 0  2.70905347612285 0.7067207479465436 0  2.87968965213058 0.84375 0  0.1396742765227637 0.3714373577111671 0  0.1209675020841686 0.8837373530425563 0  0.1396318055029159 0.7309656161457982 0  0.4039274761094683 1.336239793581983 0  2.676470777350768 0.9877614171414461 0  0.2098223519481562 1.355491059017463 0  0.6161949108813681 0.9073080762684851 0  0.6728981805985057 1.187471545812503 0  0.4313243650936899 0.473428383024358 0  1.317579957488075 0.8752219089473544 0  1.05247475519209 0.7587740171666131 0  0.9218858728134471 0.6117854803862035 0  2.343741823603972 1.201704901656183 0  2.483180588903391 1.163054990844907 0  1.336494261441537 0.237261632693729 0  2.096334636915305 0.983917300563715 0  2.059942810014369 0.7131710752499992 0  1.940957218750955 0.8535106616369695 0  0.2735884026449029 0.6956028768230409 0  2.3791553829517 0.6794620539851567 0  2.443566922502795 0.3224565874575337 0  2.21140571429892 0.8179437442036444 0  2.863880028189143 1.175018869261394 0  1.212122991296861 0.6341965806889284 0  0.8702381850023826 1.37471255674248 0  0.4252003220264352 0.89843828480276 0  2.714126143737636 1.217200861470203 0  2.34375 1.406237299110039 0  2.71875 1.406237608026668 0  2.903224894283775 1.403224894283775 0  2.53125 1.5 0  1.444637821860123 0.3169971434781329 0  1.307097209138961 1.253815337580837 0  1.806074818262501 0.3310941379078186 0  0.09375 1.5 0  1.96875 1.5 0  1.467196512253796 0.8429542418758076 0  0.7811182225539175 0.2860230046382459 0  0.8880470276332622 0.8755399020562793 0  2.004554624687214 1.142507703833496 0  1.901808674873915 1.376717053991818 0  1.80956117606876 1.192202387775541 0  0.65625 1.5 0  2.256163989601168 1.076312782066936 0  2.35728348455407 0.9340561611988477 0  0.5508073343087652 1.161974855816299 0  1.822201850254356 0.484799098822588 0  0.6415475671733072 0.3394071993736185 0  0.6854011703162045 0.5171310296285601 0  2.010601404748645 0.3128962050875828 0  1.458109478391155 0.6494112449225909 0  1.556659288882675 1.21212759481645 0  2.15625 1.5 0  1.102952541966123 1.010721102324488 0  3 0.09375 0  2.905 0 0  1.698833571793874 0.8302602504158462 0  0.1128136071602732 0.4908067814983783 0  1.375215724596343 0.4593979824254396 0  1.667188501011557 1.033651962891267 0  0.5152717989473731 0.5573202673988191 0  0.4756630816937197 0.6823252715484635 0  2.485944291803511 0.5248037876852512 0  0.609375 1.393075143113214 0  1.657554629504312 0.6506084627130724 0  1.180547956106694 0.2992004577305749 0  1.040994897946075 0.4976964206623483 0  2.883588023402782 0.1625217501240843 0  1.437965738677728 1.09476840787
[...]
<PointData  Tensors="f_1632"> 
<DataArray  type="Float64"  Name="f_1632"  NumberOfComponents="9" format="ascii">-4.5712037711713531e+00 -1.7939782968492746e+00 0.0000000000000000e+00 -1.7939782968492746e+00 -8.8464945251681435e+00 0.0000000000000000e+00 0.0000000000000000e+00 0.0000000000000000e+00 0.0000000000000000e+00  2.6470718350377151e+01 -2.6245723480489636e-01 0.0000000000000000e+00 -2.6245723480489636e-01 2.7678182582497605e+01 0.0000000000000000e+00 0.0000000000000000e+00 0.0000000000000000e+00 0.0000000000000000e+00  2.4515991795596072e+01 -3.2107150269333817e-01 0.0000000000000000e+00 -3.2107150269333817e-01 2.4958175988348515e+01 0.0000000000000000e+00 0.0000000000000000e+00 0.0000000000000000e+00 0.0000000000000000e+00  5.7499240840882024e+01 -2.0785157069757769e+01 0.0000000000000000e+00 -2.0785157069757769e+01 -3.6163638808359533e+00 0.0000000000000000e+00 0.0000000000000000e+00 0.0000000000000000e+00 0.0000000000000000e+00  1.0630237163144321e+02 -7.8486978477551972e+01 0.0000000000000000e+00 -7.8486978477551972e+01 -6.4841575647100896e+01 0.0000000000000000e+00 0.0000000000000000e+00 0.0000000000000000e+00 0.0000000000000000e+00  9.4938233695842627e+01 -5.8304340150761860e+01 0.0000000000000000e+00 -5.8304340150761860e+01 -3.4237215290173893e+01 0.0000000000000000e+00 0.0000000000000000e+00 0.0000000000000000e+00 0.0000000000000000e+00  2.9751404461513911e+01 5.0607513695020586e+01 0.0000000000000000e+00 5.0607513695020586e+01 1.2070140461345595e+01 0.0000000000000000e+00 0.0000000000000000e+00 0.0000000000000000e+00 0.0000000000000000e+00  3.6054581768974167e+01 1.2344306862563883e+02 0.0000000000000000e+00 1.2344306862563883e+02 -3.7084529706603235e+00 0.0000000000000000e+00 0.0000000000000000e+00 0.0000000000000000e+00 0.0000000000000000e+00  1.7541791849245442e+01 3.5490504666203691e+01 0.0000000000000000e+00 3.5490504666203691e+01 3.0170500497811616e+01 0.0000000000000000e+00 0.0000000000000000e+00 0.0000000000000000e+00 0.0000000000000000e+00  -6.3543869750035590e+01 -1.2705549961896134e+01 0.0000000000000000e+00 -1.2705549961896134e+01 1.2810619886661806e+02 0.0000000000000000e+00 0.0000000000000000e+00 0.0000000000000000e+00 0.0000000000000000e+00  -1.6660508845382793e+02 2.5708694551408957e+00 0.0000000000000000e+00 2.5708694551408957e+00 2.0552877426782982e+02 0.0000000000000000e+00 0.0000000000000000e+00 0.0000000000000000e+00 0.0000000000000000e+00  -6.1373020342293472e+01 2.6844359193450491e+00 0.0000000000000000e+00 2.6844359193450491e+00 1.0514439136493552e+02 0.0000000000000000e+00 0.0000000000000000e+00 0.0000000000000000e+00 0.0000000000000000e+00  1.7632008648929084e+01 -5.1229002958857359e+00 0.0000000000000000e+00 -5.1229002958857359e+00 1.3422625091488165e+01 0.0000000000000000e+00 0.0000000000000000e+00 0.0000000000000000e+00 0.0000000000000000e+00  2.0517155026277958e+01 -7.9370695112838818e-01 0.0000000000000000e+00 -7.9370695112838818e-01 1.6311262746005628e+01 0.0000000000000000e+00 0.0000000000000000e+00 0.0000000000000000e+00 0.0000000000000000e+00  4.6453545710865455e+01 -3.7671089525607577e+00 0.0000000000000000e+00 -3.7671089525607577e+00 3.2159229624168715e+00 0.0000000000000000e+00 0.0000000000000000e+00 0.0000000000000000e+00 0.0000000000000000e+00  8.4371766823358485e+01 3.3275611788319206e+00 0.0000000000000000e+00 3.3275611788319206e+00 -4.4482755750947639e+01 0.0000000000000000e+00 0.0000000000000000e+00 0.0000000000000000e+00 0.0000000000000000e+00  -5.7541755326135045e+00 4.6550487632078781e+00 0.0000000000000000e+00 4.6550487632078781e+00 2.6007587016110143e+01 0.0000000000000000e+00 0.0000000000000000e+00 0.0000000000000000e+00 0.0000000000000000e+00  -8.1252985359476895e+01 1.2294602131997007e+02 0.0000000000000000e+00 1.2294602131997007e+02 1.1218831798191988e+02 0.0000000000000000e+00 0.0000000000000000e+00 0.0000000000000000e+00 0.0000000000000000e+00  -5.6148177832175833e+01 1.0046768786057034e+02 0.0000000000000000e+00 1.0046768786057034e+02 1.0274798341764418e+02 0.0000000000000000e+00 0.0000000000000000e+00 0.0000000000000000e+00 0.0000000000000000e+00  -1.7473352230846356e+01 -1.0933337448605599e+01 0.0000000000000000e+00 -1.0933337448605599e+01 6.4913349944938432e+01 0.0000000000000000e+00 0.0000000000000000e+00 0.0000000000000000e+00 0.0000000000000000e+00  -6.8286953301915531e+01 -5.9107137266951156e+01 0.0000000000000000e+00 -5.9107137266951156e+01 9.8396902497336256e+01 0.0000000000000000e+00 0.0000000000000000e+00 0.0000000000000000e+00 0.0000000000000000e+00  -2.6582111242957089e+00 -5.2420867090181552e+01 0.0000000000000000e+00 -5.2420867090181552e+01 5.3878919835143762e+01 0.0000000000000000e+00 0.0000000000000000e+00 0.0000000000000000e+00 0.0000000000000000e+00  5.1924538013049137e+01 -4.3129258460889224e+00 0.0000000000000000e+00 -4.3129258460889224e+00 -8.6811391231755852e+00 0.0000000000000000e+00 0.0000000000000000e+00 0.0000000000000000e+00 0.0000000000000000e+00  6.0118642375660961e+01 1.1115141807994864e+00 0.0000000000000000e+00 1.1115141807994864e+00 -2.5988122965705969e+01 0.0000000000000000e+00 0.0000000000000000e+00 0.0000000000000000e+00 0.0000000000000000e+00  1.8546912639176224e+01 1.3177430699282915e+00 0.0000000000000000e+00 1.3177430699282915e+00 2.2212170388683816e+01 0.0000000000000000e+00 0.0000000000000000e+00 0.0000000000000000e+00 0.0000000000000000e+00  -1.3144444465170186e+00 1.1662804435325780e+00 0.0000000000000000e+00 1.1662804435325780e+00 3.3458523674031404e+01 0.0000000000000000e+00 0.0000000000000000e+00 0.0000000000000000e+00 0.0000000000000000e+00  -7.8604228586949077e+01 -3.0841806095123978e+00 0.0000000000000000e+00 -3.0841806095123978e+00 1.1778653147000087e+02 0.0000000000000000e+00 0.0000000000000000e+00 0.0000000000000000e+00 0.0000000000000000e+00  -1.5715466784558666e+02 4.2588953557098662e+01 0.0000000000000000e+00 4.2588953557098662e+01 2.0944091816527435e+02 0.0000000000000000e+00 0.0000000000000000e+00 0.0000000000000000e+00 0.0000000000000000e+00  -5.1933082417335733e+01 2.5105462074597042e+01 0.0000000000000000e+00 2.5105462074597042e+01 1.1880388708768565e+02 0.0000000000000000e+00 0.0000000000000000e+00 0.0000000000000000e+00 0.0000000000000000e+00  2.2149994828556810e+01 -3.3866256700396200e+01 0.0000000000000000e+00 -3.3866256700396200e+01 4.8574925733622806e+01 0.0000000000000000e+00 0.0000000000000000e+00 0.0000000000000000e+00 0.0000000000000000e+00  1.5096828505068677e+01 -1.3075015555210987e+02 0.0000000000000000e+00 -1.3075015555210987e+02 -9.8317539678036372e+00 0.0000000000000000e+00 0.0000000000000000e+00 0.0000000000000000e+00 0.0000000000000000e+00  -6.3462674614287895e+00 -1.3823057393090203e+01 0.0000000000000000e+00 -1.3823057393090203e+01 1.9380921799980818e+01 0.0000000000000000e+00 0.0000000000000000e+00 0.0000000000000000e+00 0.0000000000000000e+00  1.0339236854697414e+02 9.8328247881355864e+01 0.0000000000000000e+00 9.8328247881355864e+01 -8.3536587086448193e+01 0.0000000000000000e+00 0.0000000000000000e+00 0.0000000000000000e+00 0.0000000000000000e+00  9.1088524489543701e+01 6.4547573609157695e+01 0.0000000000000000e+00 6.4547573609157695e+01 -4.1615542053194069e+01 0.0000000000000000e+00 0.0000000000000000e+00 0.0000000000000000e+00 0.0000000000000000e+00  5.2856649442457533e+00 1.0468222397762716e+01 0.0000000000000000e+00 1.0468222397762716e+01 3.1142992783111549e+01 0.0000000000000000e+00 0.0000000000000000e+00 0.0000000000000000e+00 0.0000000000000000e+00  -9.1880323147897670e+01 6.0599004121913069e+01 0.0000000000000000e+00 6.0599004121913069e+01 1.3860667100990807e+02 0.0000000000000000e+00 0.0000000000000000e+00 0.0000000000000000e+00 0.0000000000000000e+00  -1.1009435435221005e+02 1.5502065256031909e+02 0.0000000000000000e+00 1.5502065256031909e+02 1.2860364946030182e+02 0.0000000000000000e+00 0.0000000000000000e+00 0.0000000000000000e+00 0.0000000000000000e+00  -5.6297626765711762e+01 1.6882083428386682e+02 0.0000000000000000e+00 1.6882083428386682e+02 9.9577631981707583e+01 0.0000000000000000e+00 0.0000000000000000e+00 0.0000000000000000e+00 0.0000000000000000e+00  1.8031984941567611e+01 -4.1421344540149994e+00 0.0000000000000000e+00 -4.1421344540149994e+00 4.4208128879423924e+01 0.0000000000000000e+00 0.0000000000000000e+00 0.0000000000000000e+00 0.0000000000000000e+00  2.1009382033737971e+01 -3.5292019632401970e+00 0.0000000000000000e+00 -3.5292019632401970e+00 1.5090004859158068e+01 0.0000000000000000e+00 0.0000000000000000e+00 0.0000000000000000e+00 0.0000000000000000e+00  3.6923037862458251e+01 2.3742731106020660e+01 0.0000000000000000e+00 2.3742731106020660e+01 1.7101321041586861e+00 0.0000000000000000e+00 0.0000000000000000e+00 0.0000000000000000e+00 0.0000000000000000e+00  2.8993033992520218e+01 2.0900070545587660e+01 0.0000000000000000e+00 2.0900070545587660e+01 8.0881915955461530e+00 0.0000000000000000e+00 0.0000000000000000e+00 0.0000000000000000e+00 0.0000000000000000e+00  -3.5719126149467847e+01 -1.5408068229955832e+01 0.0000000000000000e+00 -1.5408068229955832e+01 7.0222223234717617e+01 0.0000000000000000e+00 0.0000000000000000e+00 0.0000000000000000e+00 0.0000000000000000e+00  -1.4606329733912602e+02 1.0173354611181141e+01 0.0000000000000000e+00 1.0173354611181141e+01 1.5656639282947165e+02 0.0000000000000000e+00 0.0000000000000000e+00 0.0000000000000000e+00 0.0000000000000000e+00  -8.6906731175046716e+01 1.8092177707422668e+01 0.0000000000000000e+00 1.8092177707422668e+01 1.3616830710110133e+02 0.0000000000000000e+00 0.0000000000000000e+00 0.0000000000000000e+00 0.0000000000000000e+00  3.7156069908158682e+00 -3.4722894576150097e+01 0.0000000000000000e+00 -3.4722894576150097e+01 4.9847743674778691e+01 0.0000000000000000e+00 0.0000000000000000e+00 0.0000000000000000e+00 0.0000000000000000e+00  -2.0068716277402037e+00 -1.1224047928322803e+02 0.0000000000000000e+00 -1.1224047928322803e+02 1.7850031330969045e+01 0.0000000000000000e+00 0.0000000000000000e+00 0.0000000000000000e+00 0.0000000000000000e+00  5.0202588992825525e+01 -4.8594787718848238e+01 0.0000000000000000e+00 -4.8594787718848238e+01 -1.0083397463161354e+01 0.0000000000000000e+00 0.0000000000000000e+00 0.0000000000000000e+00 0.0000000000000000e+00  8.6570366040848654e+01 7.7178729884120827e+01 0.0000000000000000e+00 7.7178729884120827e+01 -6.0888796789446538e+01 0.0000000000000000e+00 0.0000000000000000e+00 0.0000000000000000e+00 0.0000000000000000e+00  1.2778585577255699e+02 9.4908095904018353e+01 0.0000000000000000e+00 9.4908095904018353e+01 -8.9509315643011817e+01 0.0000000000000000e+00 0.0000000000000000e+00 0.0000000000000000e+00 0.0000000000000000e+00  5.8644779134580389e+01 2.2014521636898198e+01 0.0000000000000000e+00 2.2014521636898198e+01 -2.0577350613015621e+01 0.0000000000000000e+00 0.0000000000000000e+00 0.0000000000000000e+00 0.0000000000000000e+00  2.1809638646721240e+01 1.5239983341002739e+01 0.0000000000000000e+00 1.5239983341002739e+01 1.9067855686980153e+01 0.0000000000000000e+00 0.0000000000000000e+00 0.0000000000000000e+00 0.0000000000000000e+00  -2.6138330426960064e+01 8.7406496947880061e+00 0.0000000000000000e+00 8.7406496947880061e+00 7.2701807617108145e+01 0.0000000000000000e+00 0.0000000000000000e+00 0.0000000000000000e+00 0.0000000000000000e+00  3.3975232269430563e+01 -6.1534583735464736e+01 0.0000000000000000e+00 -6.1534583735464736e+01 1.9994625724255567e+01 0.0000000000000000e+00 0.0000000000000000e+00 0.0000000000000000e+00 0.0000000000000000e+00  2.0089270179641481e+01 -1.3569004031705691e+02 0.0000000000000000e+00 -1.3569004031705691e+02 6.7856633853209225e-01 0.0000000000000000e+00 0.0000000000000000e+00 0.0000000000000000e+00 0.0000000000000000e+00  3.7391668070472036e+01 -2.0402598589891436e+01 0.0000000000000000e+00 -2.0402598589891436e+01 -6.1196969562537387e+00 0.0000000000000000e+00 0.0000000000000000e+00 0.0000000000000000e+00 0.0000000000000000e+00  8.6634781147905997e+01 7.5181076653241078e+01 0.0000000000000000e+00 7.5181076653241078e+01 -6.2801477966013586e+01 0.0000000000000000e+00 0.0000000000000000e+00 0.0000000000000000e+00 0.0000000000000000e+00  8.9452485613814787e+01 5.0038546113327605e+01 0.0000000000000000e+00 5.0038546113327605e+01 -7.0835056586247148e+01 0.0000000000000000e+00 0.0000000000000000e+00 0.0000000000000000e+00 0.0000000000000000e+00  5.7115511878264066e+01 4.4473036294456481e-01 0.0000000000000000e+00 4.4473036294456481e-01 -1.6935421599816458e+01 0.0000000000000000e+00 0.0000000000000000e+00 0.0000000000000000e+00 0.0000000000000000e+00  1.8677521127657229e+01 1.2579716564796648e+00 0.0000000000000000e+00 1.2579716564796652e+00 1.6942699810515276e+01 0.0000000000000000e+00 0.0000000000000000e+00 0.0000000000000000e+00 0.0000000000000000e+00  1.9884289611524490e+01 6.9972287684478562e-01 0.0000000000000000e+00 6.9972287684478573e-01 2.0519482762234926e+01 0.0000000000000000e+00 0.0000000000000000e+00 0.0000000000000000e+00 0.0000000000000000e+00  1.9898845779914023e+01 -1.7494925243898615e-01 0.0000000000000000e+00 -1.7494925243898615e-01 1.7940521299051511e+01 0.0000000000000000e+00 0.0000000000000000e+00 0.0000000000000000e+00 0.0000000000000000e+00  5.6514413710416704e+00 -1.0845956101148355e+01 0.0000000000000000e+00 -1.0845956101148353e+01 2.7590116989661286e+01 0.0000000000000000e+00 0.0000000000000000e+00 0.0000000000000000e+00 0.0000000000000000e+00  5.3416377924244919e+01 -1.5227675778036506e+01 0.0000000000000000e+00 -1.5227675778036506e+01 -2.8358698141177765e+01 0.0000000000000000e+00 0.0000000000000000e+00 0.0000000000000000e+00 0.0000000000000000e+00  1.1173159421520822e+02 -9.3246952869912107e+01 0.0000000000000000e+00 -9.3246952869912107e+01 -8.6920967027873672e+01 0.0000000000000000e+00 0.0000000000000000e+00 0.0000000000000000e+00 0.0000000000000000e+00  8.5022768073535943e+01 -8.0405226042917121e+01 0.0000000000000000e+00 -8.0405226042917121e+01 -6.7458152296354555e+01 0.0000000000000000e+00 0.0000000000000000e+00 0.0000000000000000e+00 0.0000000000000000e+00  2.5685987757271054e+01 4.0220252206255147e+01 0.0000000000000000e+00 4.0220252206255147e+01 -4.5863084786450710e+00 0.0000000000000000e+00 0.0000000000000000e+00 0.0000000000000000e+00 0.0000000000000000e+00  1.3991269202232203e+01 7.1712227121753912e+01 0.0000000000000000e+00 7.1712227121753912e+01 2.4618531506600210e+01 0.0000000000000000e+00 0.0000000000000000e+00 0.0000000000000000e+00 0.0000000000000000e+00  -2.8965523790173524e+01 -1.6687349128586593e+01 0.0000000000000000e+00 -1.6687349128586593e+01 4.9876325044325121e+01 0.0000000000000000e+00 0.0000000000000000e+00 0.0000000000000000e+00 0.0000000000000000e+00  -1.2880027880320205e+02 -6.4108111061900701e+01 0.0000000000000000e+00 -6.4108111061900701e+01 1.5656698389589394e+02 0.0000000000000000e+00 0.0000000000000000e+00 0.0000000000000000e+00 0.0000000000000000e+00  -2.8889020442985174e+01 -5.9850338610813225e+01 0.0000000000000000e+00 -5.9850338610813225e+01 5.6894436141174673e+01 0.0000000000000000e+00 0.0000000000000000e+00 0.0000000000000000e+00 0.0000000000000000e+00  2.9468860017574642e+01 -3.2679291038421184e+01 0.0000000000000000e+00 -3.2679291038421184e+01 2.7885791467206040e+01 0.0000000000000000e+00 0.0000000000000000e+00 0.0000000000000000e+00 0.0000000000000000e+00  8.1594787892015304e+01 -6.2141266744441893e+01 0.0000000000000000e+00 -6.2141266744441893e+01 -3.6598900558745648e+01 0.0000000000000000e+00 0.0000000000000000e+00 0.0000000000000000e+00 0.0000000000000000e+00  9.1777255969371424e+01 -8.8520394582452397e+01 0.0000000000000000e+00 -8.8520394582452397e+01 -8.3966272974886110e+01 0.0000000000000000e+00 0.0000000000000000e+00 0.0000000000000000e+00 0.0000000000000000e+00  4.6458739096642610e+01 -2.8459916810379038e+01 0.0000000000000000e+00 -2.8459916810379038e+01 -1.5589090185978515e+01 0.0000000000000000e+00 0.0000000000000000e+00 0.0000000000000000e+00 0.0000000000000000e+00  -2.6601694313808033e+00 -2.4770171155969889e+00 0.0000000000000000e+00 -2.4770171155969889e+00 7.2872019376696722e+00 0.0000000000000000e+00 0.0000000000000000e+00 0.0000000000000000e+00 0.0000000000000000e+00  -4.3847042503489540e+01 -3.8504741124660534e+01 0.0000000000000000e+00 -3.8504741124660534e+01 7.8275830624023627e+01 0.0000000000000000e+00 0.0000000000000000e+00 0.0000000000000000e+00 0.0000000000000000e+00  -2.8299083183431725e+02 -1.1598776672305821e+02 0.0000000000000000e+00 -1.1598776672305821e+02 2.7630891592085686e+02 0.0000000000000000e+00 0.0000000000000000e+00 0.0000000000000000e+00 0.0000000000000000e+00  -3.0012954502345639e+02 -5.3859977710473139e+01 0.0000000000000000e+00 -5.3859977710473139e+01 2.9546714429757139e+02 0.0000000000000000e+00 0.0000000000000000e+00 0.0000000000000000e+00 0.0000000000000000e+00  -1.8997766630671879e+02 1.9894287022510362e+01 0.0000000000000000e+00 1.9894287022510362e+01 2.2071249481324762e+02 0.0000000000000000e+00 0.0000000000000000e+00 0.0000000000000000e+00 0.0000000000000000e+00  -8.8900179481483704e+01 7.0354689345937274e+01 0.0000000000000000e+00 7.0354689345937274e+01 8.7265709425987254e+01 0.0000000000000000e+00 0.0000000000000000e+00 0.0000000000000000e+00 0.0000000000000000e+00  -1.3402367960379232e+01 3.0075790848170424e+01 0.0000000000000000e+00 3.0075790848170424e+01 1.8893167025705292e+01 0.0000000000000000e+00 0.0000000000000000e+00 0.0000000000000000e+00 0.0000000000000000e+00  9.5421900012227823e-01 5.4817253973185966e+00 0.0000000000000000e+00 5.4817253973185966e+00 1.3301812992677982e+01 0.0000000000000000e+00 0.0000000000000000e+00 0.0000000000000000e+00 0.0000000000000000e+00  -2.7655602771384946e+02 1.5448262332113785e+02 0.0000000000000000e+00 1.5448262332113785e+02 -2.8813855657772695e+01 0.0000000000000000e+00 0.0000000000000000e+00 0.0000000000000000e+00 0.0000000000000000e+00  4.2818579354869462e+02 2.7257899838998128e+02 0.0000000000000000e+00 2.7257899838998128e+02 1.0998584649211743e+02 0.0000000000000000e+00 0.0000000000000000e+00 0.0000000000000000e+00 0.0000000000000000e+00  1.0589781615610720e+01 1.4011432117806390e+02 0.0000000000000000e+00 1.4011432117806390e+02 1.5047335007925142e+00 0.0000000000000000e+00 0.0000000000000000e+00 0.0000000000000000e+00 0.0000000000000000e+00  2.4532785668416800e+01 -2.0795423296115225e+00 0.0000000000000000e+00 -2.0795423296115225e+00 1.9467115096038523e+01 0.0000000000000000e+00 0.0000000000000000e+00 0.0000000000000000e+00 0.0000000000000000e+00  3.3264210610340903e+01 7.1834901121664672e+00 0.0000000000000000e+00 7.1834901121664672e+00 1.3630723439741420e+01 0.0000000000000000e+00 0.0000000000000000e+00 0.0000000000000000e+00 0.0000000000000000e+00  -2.6775077744227868e+01 3.8531468840238441e+00 0.0000000000000000e+00 3.8531468840238441e+00 -1.7708254592142708e+01 0.0000000000000000e+00 0.0000000000000000e+00 0.0000000000000000e+00 0.0000000000000000e+00  1.9299293279510238e+01 -2.3596741570600074e+02 0.0000000000000000e+00 -2.3596741570600074e+02 -5.9761317368571332e+00 0.0000000000000000e+00 0.0000000000000000e+00 0.0000000000000000e+00 0.0000000000000000e+00  1.4237527743314049e+01 1.4599298596822669e+02 0.0000000000000000e+00 1.4599298596822669e+02 2.0816433895641467e+01 0.0000000000000000e+00 0.0000000000000000e+00 0.0000000000000000e+00 0.0000000000000000e+00  1.1633918602876869e+02 -9.2413316644043178e+01 0.0000000000000000e+00 -9.2413316644043178e+01 2.5789728352483341e+01 0.0000000000000000e+00 0.0000000000000000e+00 0.0000000000000000e+00 0.0000000000000000e+00  2.2511781376460895e+01 1.6170192759880533e+02 0.0000000000000000e+00 1.6170192759880533e+02 2.2435850475954751e+01 0.0000000000000000e+00 0.0000000000000000e+00 0.0000000000000000e+00 0.0000000000000000e+00  1.3166451561357130e+01 4.9413840688638238e+01 0.0000000000000000e+00 4.9413840688638238e+01 3.3973631997585663e+01 0.0000000000000000e+00 0.0000000000000000e+00 0.0000000000000000e+00 0.0000000000000000e+00  2.5619147524153213e+01 -1.5766396659038881e-01 0.0000000000000000e+00 -1.5766396659038881e-01 2.4483408310709116e+01 0.0000000000000000e+00 0.0000000000000000e+00 0.000000000000000