<?xml version="1.0"?>
<VTKFile type="UnstructuredGrid"  version="0.1"  >
<UnstructuredGrid>
<Piece  NumberOfPoints="4961" NumberOfCells="9546">
<Points>
<DataArray  type="Float64"  NumberOfComponents="3"  format="ascii">0 1.5 0  -0 0.09117947244826481 0  0.0220162612375116 0.1293127555043441 0  0.05279126660105127 0.1634918616050268 0  0.09000000000000007 0.1905255888325765 0  0.1320162612375116 0.2092324335849338 0  0.1770037380811163 0.2187948169810202 0  0.2229962619188838 0.2187948169810201 0  0.2679837387624884 0.2092324335849338 0  0.3100000000000001 0.1905255888325765 0  0.3472087333989489 0.1634918616050267 0  0.3779837387624885 0.1293127555043441 0  0.4009800006813722 0.08948206147667603 0  0.4052662851173224 0.07629023443250138 0  0.4200599930048062 0.1082663100071745 0  0.4475409466961425 0.1444168863592189 0  0.4821507162738997 0.173814689612947 0  0.522270987378618 0.1950851111615262 0  0.5660257807239194 0.2072335697337205 0  0.6113691708029376 0.209692016908736 0  0.6561809510911363 0.2023454984290368 0  0.6983657725469559 0.1855375293336648 0  0.7359511198041838 0.1600540315768036 0  0.7671795437981852 0.1270865851906907 0  0.7895690044779959 0.089875012069959 0  0.7989002782867461 0.1116194513821486 0  0.825485631780658 0.1498156710261111 0  0.8592156240140376 0.1818784194956707 0  0.8987093451417441 0.2064950441012706 0  0.9423499175804944 0.222657737339227 0  0.9883506911670961 0.2297047966493422 0  1.034828388826053 0.2273477145954656 0  1.079880208154309 0.2156829903938285 0  1.121661722375201 0.1951881792237927 0  1.158462391387408 0.1667023410626976 0  1.188775591477674 0.1313916894718022 0  1.211360296672653 0.09070184667606328 0  1.225291886488074 0.04629865962039181 0  1.23 0 0  1.38 0 0  1.384807527838563 0.04574057197990705 0  1.399019999318628 0.08948206147667601 0  1.422016261237512 0.1293127555043441 0  1.452791266601051 0.1634918616050268 0  1.49 0.1905255888325765 0  1.532016261237512 0.2092324335849338 0  1.577003738081116 0.2187948169810202 0  1.622996261918884 0.2187948169810201 0  1.667983738762489 0.2092324335849338 0  1.71 0.1905255888325765 0  1.747208733398949 0.1634918616050267 0  1.763158635297163 0.1457777009465727 0  1.8 0.1732050807568878 0  1.842639353457782 0.1915979024630978 0  1.888371034217905 0.1996616316542537 0  1.934729635533386 0.1969615506024416 0  1.979215953207831 0.1836432213760548 0  2.019431718340557 0.1604246385510087 0  2.053208888623796 0.1285575219373079 0  2.078726528064682 0.08975983604009244 0  2.089496128668151 0.06017060156551748 0  2.099019999318628 0.08948206147667601 0  2.122016261237512 0.1293127555043441 0  2.152791266601051 0.1634918616050268 0  2.19 0.1905255888325765 0  2.232016261237511 0.2092324335849338 0  2.277003738081116 0.2187948169810202 0  2.322996261918884 0.2187948169810201 0  2.367983738762488 0.2092324335849338 0  2.41 0.1905255888325765 0  2.447208733398949 0.1634918616050267 0  2.457084733682728 0.1525234520934048 0  2.4821507162739 0.173814689612947 0  2.522270987378618 0.1950851111615262 0  2.56602578072392 0.2072335697337205 0  2.611369170802938 0.209692016908736 0  2.656180951091136 0.2023454984290368 0  2.698365772546956 0.1855375293336648 0  2.735951119804184 0.1600540315768036 0  2.767179543798185 0.1270865851906907 0  2.790590838130901 0.08817671132765556 0  2.805090316699118 0.04514379244431505 0  2.81 0 0  3 0 0  3 1.5 0  0 0.7956998320486358 0  0.4110904441558352 0.08887894789033324 0  0.7773699356874649 0.1101500221202465 0  1.5 1.5 0  3 0.75 0  0 0.4434396522484503 0  3 0.375 0  0 0.2673095623483576 0  0 0.1792445173983112 0  0 0.135211994923288 0  2.25 1.5 0  0.75 1.5 0  1.807676614587897 0.8837271123414687 0  1.04553857344641 0.8979441530181422 0  2.403437242208115 0.8132876225209357 0  0.5070864579510219 1.00719278150819 0  3 1.125 0  1.338035405010484 0.5883821138073757 0  2.625 1.5 0  0.3818338799394321 0.6099209340690734 0  2.067950237167102 0.5767429460037152 0  1.428016626639016 0.9663701540160734 0  1.875 1.5 0  2.136976695697423 1.114248364898298 0  1.125 1.5 0  0.375 1.5 0  0.7837785056474272 0.5924157926009261 0  2.621900904970652 1.121900904970652 0  0 1.147849916024318 0  1.717071692555337 0.550779009763445 0  1.678619011272733 1.204235418149387 0  0.8184015011321764 1.160011833453945 0  2.690771901920515 0.5625 0  1.191553529739931 1.18494431212041 0  2.361743998733192 0.516240498397431 0  2.727335050325185 0.8509414958930873 0  1.061120194703906 0.6196995992969355 0  0.269244960297408 0.8637990218922467 0  0.7609530458041533 0.8768664729047809 0  0.5625 1.286150286226427 0  0.2788879438654684 1.226607136693913 0  2.077535333020466 0.8486969269297693 0  2.4375 1.312474598220077 0  2.809426100237187 1.309426100237187 0  1.544358239139601 0.7389704993474611 0  1.434454912167138 1.210530519498476 0  2.380335199591509 1.061271835208851 0  1.926191456889599 1.252931474193008 0  0.5486378118088926 0.7757115443742588 0  0.5753328044103648 0.454959652232189 0  1.281333603460298 0.3634530521588742 0  0.9959109141311655 1.308173392725312 0  1.507364216928931 0.4358170942512657 0  1.21812632380771 0.7680504611018459 0  0 0.6195697421485431 0  1.3125 1.5 0  0.2892140007400885 0.4197188740688536 0  1.924109453869066 0.4139433366638808 0  0.9329747065756857 0.4375180073994652 0  2.243231692495831 0.684324343130167 0  2.0625 1.5 0  2.124178136191116 0.3821183579116478 0  1.923364695744858 0.7179848099571996 0  2.233034933769442 1.295537230099697 0  1.961794510294921 1.014032929092127 0  0.9133498533613748 0.7509830595402348 0  0 0.9717748740364769 0  0.1875 1.5 0  0 1.323924958012159 0  1.227107007305785 0.9862124750220198 0  1.616617139708145 0.9194004298184476 0  2.811636610329211 1.039737091854792 0  0.1901803394569171 0.5855957240372172 0  2.511165533602297 0.6467174115519351 0  2.536466024168012 0.9507486861843897 0  0.1866521719860137 1.047526440960541 0  2.74946330463778 0.3751246081287475 0  2.543804048982231 0.4145708923164018 0  0.9375 1.5 0  2.4375 1.5 0  0.5625 1.5 0  3 0.5625 0  1.6875 1.5 0  3 0.1875 0  3 0.9375 0  3 1.3125 0  2.8125 1.5 0  1.010044310702206 1.096645863828023 0  2.623488142128434 1.314011651358178 0  2.229558763998408 0.9540962470011799 0  2.845385950960257 0.65625 0  0.7525337220569124 0.4130199536593896 0  1.10537722367743 0.3921278680533664 0  0.6842290971134891 1.039833940778862 0  0.7386374643770518 1.32083913541365 0  1.553387564684306 1.08522930563603 0  1.788789291239656 1.06235950910253 0  1.559809215736361 1.334301807720895 0  1.750410104758408 0.7205088288478614 0  1.672011031024921 0.3842266692686779 0  1.77867146649739 1.349246747510312 0  1.21875 1.355246746101045 0  0.8723426006985372 1.001666865795386 0  1.380631426145093 0.7466576340788873 0  0.4259246536592668 0.3283409344703117 0  0.3444360723462823 1.008028502358495 0  0.6161474109915657 0.6198433096250735 0  0.4265019066463465 1.151756411601508 0  1.403034104827827 1.367717620859348 0  2.874684993382777 0.28125 0  2.874778249279309 0.46875 0  2.071314369495706 1.334001876948522 0  2.3 0.3730371416193449 0  1.322682484320052 1.105857305698365 0  1.563127563616163 0.5828461597844022 0  2.559040610931566 0.7958017532902765 0  1.213306121383676 0.5002133671656324 0  1.916121887065227 0.5659454196943852 0  2.207677378621353 0.5116761937353096 0  0.1257028237453774 1.235887437018238 0  0.7203062975228639 0.7304636720840537 0  0.3921145397364951 0.7663844669080319 0  2.70905347612285 0.7067207479465436 0  2.87968965213058 0.84375 0  0.1396742765227637 0.3714373577111671 0  0.1209675020841686 0.8837373530425563 0  0.1396318055029159 0.7309656161457982 0  0.4039274761094683 1.336239793581983 0  2.676470777350768 0.9877614171414461 0  0.2098223519481562 1.355491059017463 0  0.6161949108813681 0.9073080762684851 0  0.6728981805985057 1.187471545812503 0  0.4313243650936899 0.473428383024358 0  1.317579957488075 0.8752219089473544 0  1.05247475519209 0.7587740171666131 0  0.9218858728134471 0.6117854803862035 0  2.343741823603972 1.201704901656183 0  2.483180588903391 1.163054990844907 0  1.336494261441537 0.237261632693729 0  2.096334636915305 0.983917300563715 0  2.059942810014369 0.7131710752499992 0  1.940957218750955 0.8535106616369695 0  0.2735884026449029 0.6956028768230409 0  2.3791553829517 0.6794620539851567 0  2.443566922502795 0.3224565874575337 0  2.21140571429892 0.8179437442036444 0  2.863880028189143 1.175018869261394 0  1.212122991296861 0.6341965806889284 0  0.8702381850023826 1.37471255674248 0  0.4252003220264352 0.89843828480276 0  2.714126143737636 1.217200861470203 0  2.34375 1.406237299110039 0  2.71875 1.406237608026668 0  2.903224894283775 1.403224894283775 0  2.53125 1.5 0  1.444637821860123 0.3169971434781329 0  1.307097209138961 1.253815337580837 0  1.806074818262501 0.3310941379078186 0  0.09375 1.5 0  1.96875 1.5 0  1.467196512253796 0.8429542418758076 0  0.7811182225539175 0.2860230046382459 0  0.8880470276332622 0.8755399020562793 0  2.004554624687214 1.142507703833496 0  1.901808674873915 1.376717053991818 0  1.80956117606876 1.192202387775541 0  0.65625 1.5 0  2.256163989601168 1.076312782066936 0  2.35728348455407 0.9340561611988477 0  0.5508073343087652 1.161974855816299 0  1.822201850254356 0.484799098822588 0  0.6415475671733072 0.3394071993736185 0  0.6854011703162045 0.5171310296285601 0  2.010601404748645 0.3128962050875828 0  1.458109478391155 0.6494112449225909 0  1.556659288882675 1.21212759481645 0  2.15625 1.5 0  1.102952541966123 1.010721102324488 0  3 0.09375 0  2.905 0 0  1.698833571793874 0.8302602504158462 0  0.1128136071602732 0.4908067814983783 0  1.375215724596343 0.4593979824254396 0  1.667188501011557 1.033651962891267 0  0.5152717989473731 0.5573202673988191 0  0.4756630816937197 0.6823252715484635 0  2.485944291803511 0.5248037876852512 0  0.609375 1.393075143113214 0  1.657554629504312 0.6506084627130724 0  1.180547956106694 0.2992004577305749 0  1.040994897946075 0.4976964206623483 0  2.883588023402782 0.1625217501240843 0  1.437965738677728 1.09476840787
[...]
<PointData  Tensors="f_1404"> 
<DataArray  type="Float64"  Name="f_1404"  NumberOfComponents="9" format="ascii">-3.3532188726997370e+00 -1.0071387076519372e-01 0.0000000000000000e+00 -1.0071387076519372e-01 -1.0094813765044169e+01 0.0000000000000000e+00 0.0000000000000000e+00 0.0000000000000000e+00 0.0000000000000000e+00  2.7306356115076326e+01 -3.0085641218031267e-01 0.0000000000000000e+00 -3.0085641218031267e-01 2.8571644123488994e+01 0.0000000000000000e+00 0.0000000000000000e+00 0.0000000000000000e+00 0.0000000000000000e+00  2.5291494497926852e+01 -4.4393627969639915e-01 0.0000000000000000e+00 -4.4393627969639915e-01 2.5867710003222175e+01 0.0000000000000000e+00 0.0000000000000000e+00 0.0000000000000000e+00 0.0000000000000000e+00  6.0812317346534932e+01 -1.9724340067156753e+01 0.0000000000000000e+00 -1.9724340067156753e+01 -4.4829292550619124e+00 0.0000000000000000e+00 0.0000000000000000e+00 0.0000000000000000e+00 0.0000000000000000e+00  1.0161095999636245e+02 -7.0741222755581802e+01 0.0000000000000000e+00 -7.0741222755581802e+01 -6.0026562648125164e+01 0.0000000000000000e+00 0.0000000000000000e+00 0.0000000000000000e+00 0.0000000000000000e+00  8.8912547050934407e+01 -5.0102655634678996e+01 0.0000000000000000e+00 -5.0102655634678996e+01 -2.8448375171654199e+01 0.0000000000000000e+00 0.0000000000000000e+00 0.0000000000000000e+00 0.0000000000000000e+00  3.0063161949172542e+01 4.6111058698360615e+01 0.0000000000000000e+00 4.6111058698360615e+01 1.1954442630192270e+01 0.0000000000000000e+00 0.0000000000000000e+00 0.0000000000000000e+00 0.0000000000000000e+00  3.8510078083591551e+01 1.1295365264801620e+02 0.0000000000000000e+00 1.1295365264801620e+02 -3.9129170074557158e+00 0.0000000000000000e+00 0.0000000000000000e+00 0.0000000000000000e+00 0.0000000000000000e+00  2.0515157524342165e+01 3.8628754316324226e+01 0.0000000000000000e+00 3.8628754316324226e+01 2.8430008562490755e+01 0.0000000000000000e+00 0.0000000000000000e+00 0.0000000000000000e+00 0.0000000000000000e+00  -5.8281888805891811e+01 -1.2958717839751428e+01 0.0000000000000000e+00 -1.2958717839751428e+01 1.1868230806178525e+02 0.0000000000000000e+00 0.0000000000000000e+00 0.0000000000000000e+00 0.0000000000000000e+00  -1.4178287340827794e+02 9.0472199436743117e-01 0.0000000000000000e+00 9.0472199436743117e-01 1.8451179689386922e+02 0.0000000000000000e+00 0.0000000000000000e+00 0.0000000000000000e+00 0.0000000000000000e+00  -5.5010084423484408e+01 4.2280565626555493e+00 0.0000000000000000e+00 4.2280565626555493e+00 9.7928591847641485e+01 0.0000000000000000e+00 0.0000000000000000e+00 0.0000000000000000e+00 0.0000000000000000e+00  1.8677351120787289e+01 -4.8916343394511799e+00 0.0000000000000000e+00 -4.8916343394511799e+00 1.4814958596350941e+01 0.0000000000000000e+00 0.0000000000000000e+00 0.0000000000000000e+00 0.0000000000000000e+00  2.1434382019751922e+01 -8.7616023223747741e-01 0.0000000000000000e+00 -8.7616023223747741e-01 1.7473374260404352e+01 0.0000000000000000e+00 0.0000000000000000e+00 0.0000000000000000e+00 0.0000000000000000e+00  4.9159670690092362e+01 -2.5443543252493632e+00 0.0000000000000000e+00 -2.5443543252493632e+00 2.2387323643074315e+00 0.0000000000000000e+00 0.0000000000000000e+00 0.0000000000000000e+00 0.0000000000000000e+00  8.2963717449305264e+01 5.2002917376731359e+00 0.0000000000000000e+00 5.2002917376731359e+00 -4.0563994309139282e+01 0.0000000000000000e+00 0.0000000000000000e+00 0.0000000000000000e+00 0.0000000000000000e+00  -3.5435984439994801e+00 4.8869949870006346e+00 0.0000000000000000e+00 4.8869949870006346e+00 2.7072494359609021e+01 0.0000000000000000e+00 0.0000000000000000e+00 0.0000000000000000e+00 0.0000000000000000e+00  -6.9019667854551059e+01 1.0954864711724208e+02 0.0000000000000000e+00 1.0954864711724208e+02 1.0201360518382886e+02 0.0000000000000000e+00 0.0000000000000000e+00 0.0000000000000000e+00 0.0000000000000000e+00  -4.6531701747769148e+01 9.1936256257826614e+01 0.0000000000000000e+00 9.1936256257826614e+01 9.2302026597185517e+01 0.0000000000000000e+00 0.0000000000000000e+00 0.0000000000000000e+00 0.0000000000000000e+00  -1.6554055832383266e+01 -1.3423771145392717e+01 0.0000000000000000e+00 -1.3423771145392717e+01 6.5607577543898358e+01 0.0000000000000000e+00 0.0000000000000000e+00 0.0000000000000000e+00 0.0000000000000000e+00  -5.5702259035345648e+01 -5.6064020100514540e+01 0.0000000000000000e+00 -5.6064020100514540e+01 8.8054717919088290e+01 0.0000000000000000e+00 0.0000000000000000e+00 0.0000000000000000e+00 0.0000000000000000e+00  2.0890331921824243e+00 -4.6759729454808529e+01 0.0000000000000000e+00 -4.6759729454808529e+01 4.8114833060290422e+01 0.0000000000000000e+00 0.0000000000000000e+00 0.0000000000000000e+00 0.0000000000000000e+00  5.2329862218623020e+01 -5.0081949183108305e+00 0.0000000000000000e+00 -5.0081949183108305e+00 -7.8729664786408735e+00 0.0000000000000000e+00 0.0000000000000000e+00 0.0000000000000000e+00 0.0000000000000000e+00  6.2380164404069532e+01 8.5211569889483185e-01 0.0000000000000000e+00 8.5211569889483185e-01 -2.4795976962835073e+01 0.0000000000000000e+00 0.0000000000000000e+00 0.0000000000000000e+00 0.0000000000000000e+00  1.9451525155688106e+01 1.9574267738754332e+00 0.0000000000000000e+00 1.9574267738754332e+00 2.2013021099177546e+01 0.0000000000000000e+00 0.0000000000000000e+00 0.0000000000000000e+00 0.0000000000000000e+00  -1.2421612614825413e-01 1.2495894873650297e+00 0.0000000000000000e+00 1.2495894873650297e+00 3.3717554009011877e+01 0.0000000000000000e+00 0.0000000000000000e+00 0.0000000000000000e+00 0.0000000000000000e+00  -6.8541177290625512e+01 -4.1349673538901017e+00 0.0000000000000000e+00 -4.1349673538901017e+00 1.0846578169446856e+02 0.0000000000000000e+00 0.0000000000000000e+00 0.0000000000000000e+00 0.0000000000000000e+00  -1.3372613429919960e+02 3.7575464732951069e+01 0.0000000000000000e+00 3.7575464732951069e+01 1.8785648927781358e+02 0.0000000000000000e+00 0.0000000000000000e+00 0.0000000000000000e+00 0.0000000000000000e+00  -4.4007633811413996e+01 2.5508507092950769e+01 0.0000000000000000e+00 2.5508507092950769e+01 1.0838074686141027e+02 0.0000000000000000e+00 0.0000000000000000e+00 0.0000000000000000e+00 0.0000000000000000e+00  1.9653017849412937e+01 -3.5845264942132737e+01 0.0000000000000000e+00 -3.5845264942132737e+01 4.4976400187026478e+01 0.0000000000000000e+00 0.0000000000000000e+00 0.0000000000000000e+00 0.0000000000000000e+00  1.7774456253097664e+01 -1.1842448564759808e+02 0.0000000000000000e+00 -1.1842448564759808e+02 -8.8272100760877699e+00 0.0000000000000000e+00 0.0000000000000000e+00 0.0000000000000000e+00 0.0000000000000000e+00  -2.5827944163725038e+00 -1.1466328458466769e+01 0.0000000000000000e+00 -1.1466328458466769e+01 1.7667556216719468e+01 0.0000000000000000e+00 0.0000000000000000e+00 0.0000000000000000e+00 0.0000000000000000e+00  9.6711428316607964e+01 8.6928828474966437e+01 0.0000000000000000e+00 8.6928828474966437e+01 -7.4316369969465001e+01 0.0000000000000000e+00 0.0000000000000000e+00 0.0000000000000000e+00 0.0000000000000000e+00  9.0188611572871565e+01 6.1090672659311643e+01 0.0000000000000000e+00 6.1090672659311643e+01 -4.0338796678696568e+01 0.0000000000000000e+00 0.0000000000000000e+00 0.0000000000000000e+00 0.0000000000000000e+00  8.4969620689213645e+00 1.2234713485844091e+01 0.0000000000000000e+00 1.2234713485844091e+01 3.3749672121708443e+01 0.0000000000000000e+00 0.0000000000000000e+00 0.0000000000000000e+00 0.0000000000000000e+00  -8.1506941341811455e+01 5.6706781193001298e+01 0.0000000000000000e+00 5.6706781193001298e+01 1.2819375502365011e+02 0.0000000000000000e+00 0.0000000000000000e+00 0.0000000000000000e+00 0.0000000000000000e+00  -9.0629229078210628e+01 1.3002284889556705e+02 0.0000000000000000e+00 1.3002284889556705e+02 1.1690999239210379e+02 0.0000000000000000e+00 0.0000000000000000e+00 0.0000000000000000e+00 0.0000000000000000e+00  -4.5056936206977255e+01 1.5061031135394052e+02 0.0000000000000000e+00 1.5061031135394052e+02 8.8831348090980370e+01 0.0000000000000000e+00 0.0000000000000000e+00 0.0000000000000000e+00 0.0000000000000000e+00  1.6584247109426443e+01 -5.7562034234147221e+00 0.0000000000000000e+00 -5.7562034234147221e+00 4.5308300907858126e+01 0.0000000000000000e+00 0.0000000000000000e+00 0.0000000000000000e+00 0.0000000000000000e+00  2.1564476415651640e+01 -2.8917746958885124e+00 0.0000000000000000e+00 -2.8917746958885124e+00 1.5855217143382001e+01 0.0000000000000000e+00 0.0000000000000000e+00 0.0000000000000000e+00 0.0000000000000000e+00  3.8404630228568458e+01 2.4532616458508741e+01 0.0000000000000000e+00 2.4532616458508741e+01 2.9983396865349832e+00 0.0000000000000000e+00 0.0000000000000000e+00 0.0000000000000000e+00 0.0000000000000000e+00  2.8838238009002939e+01 1.9516373971383569e+01 0.0000000000000000e+00 1.9516373971383569e+01 1.0752461685046249e+01 0.0000000000000000e+00 0.0000000000000000e+00 0.0000000000000000e+00 0.0000000000000000e+00  -3.0712020166480713e+01 -1.3877530903679304e+01 0.0000000000000000e+00 -1.3877530903679304e+01 6.6896806412883109e+01 0.0000000000000000e+00 0.0000000000000000e+00 0.0000000000000000e+00 0.0000000000000000e+00  -1.2590819471830559e+02 1.0066093781314931e+01 0.0000000000000000e+00 1.0066093781314931e+01 1.4102903510437082e+02 0.0000000000000000e+00 0.0000000000000000e+00 0.0000000000000000e+00 0.0000000000000000e+00  -7.4806617762868115e+01 1.8787329102811274e+01 0.0000000000000000e+00 1.8787329102811274e+01 1.2291237336817186e+02 0.0000000000000000e+00 0.0000000000000000e+00 0.0000000000000000e+00 0.0000000000000000e+00  4.3942072978664264e+00 -3.6454200623455982e+01 0.0000000000000000e+00 -3.6454200623455982e+01 4.6184015651411016e+01 0.0000000000000000e+00 0.0000000000000000e+00 0.0000000000000000e+00 0.0000000000000000e+00  2.4266275097255452e+00 -1.0004003810590756e+02 0.0000000000000000e+00 -1.0004003810590756e+02 1.3892529046160220e+01 0.0000000000000000e+00 0.0000000000000000e+00 0.0000000000000000e+00 0.0000000000000000e+00  4.9071992745135645e+01 -4.3178976613848512e+01 0.0000000000000000e+00 -4.3178976613848512e+01 -8.7708553464541481e+00 0.0000000000000000e+00 0.0000000000000000e+00 0.0000000000000000e+00 0.0000000000000000e+00  8.1931452215444949e+01 6.8073939288363263e+01 0.0000000000000000e+00 6.8073939288363263e+01 -5.2245040301799989e+01 0.0000000000000000e+00 0.0000000000000000e+00 0.0000000000000000e+00 0.0000000000000000e+00  1.2175897183920499e+02 8.4104685892952901e+01 0.0000000000000000e+00 8.4104685892952901e+01 -8.2829903561389244e+01 0.0000000000000000e+00 0.0000000000000000e+00 0.0000000000000000e+00 0.0000000000000000e+00  6.0037118412548338e+01 2.0991764467171091e+01 0.0000000000000000e+00 2.0991764467171091e+01 -1.9523742364366633e+01 0.0000000000000000e+00 0.0000000000000000e+00 0.0000000000000000e+00 0.0000000000000000e+00  2.2623678020787420e+01 1.3471513085356005e+01 0.0000000000000000e+00 1.3471513085356005e+01 1.8992169641989662e+01 0.0000000000000000e+00 0.0000000000000000e+00 0.0000000000000000e+00 0.0000000000000000e+00  -2.2432063261439097e+01 7.0565771298610835e+00 0.0000000000000000e+00 7.0565771298610835e+00 6.9106249177710822e+01 0.0000000000000000e+00 0.0000000000000000e+00 0.0000000000000000e+00 0.0000000000000000e+00  3.6801951423033422e+01 -6.1720182662935173e+01 0.0000000000000000e+00 -6.1720182662935173e+01 1.5821428074833925e+01 0.0000000000000000e+00 0.0000000000000000e+00 0.0000000000000000e+00 0.0000000000000000e+00  2.2411913700101284e+01 -1.2201858967769211e+02 0.0000000000000000e+00 -1.2201858967769211e+02 9.6155473815914605e-02 0.0000000000000000e+00 0.0000000000000000e+00 0.0000000000000000e+00 0.0000000000000000e+00  3.4492712721674529e+01 -1.9698532756844735e+01 0.0000000000000000e+00 -1.9698532756844735e+01 -5.4197929008534826e+00 0.0000000000000000e+00 0.0000000000000000e+00 0.0000000000000000e+00 0.0000000000000000e+00  8.0584528621138062e+01 6.4395748910980956e+01 0.0000000000000000e+00 6.4395748910980956e+01 -5.5896482155443017e+01 0.0000000000000000e+00 0.0000000000000000e+00 0.0000000000000000e+00 0.0000000000000000e+00  8.6172184226498317e+01 4.5723917233520382e+01 0.0000000000000000e+00 4.5723917233520382e+01 -6.4791850795886674e+01 0.0000000000000000e+00 0.0000000000000000e+00 0.0000000000000000e+00 0.0000000000000000e+00  5.9163986103641555e+01 2.6919276535163252e+00 0.0000000000000000e+00 2.6919276535163252e+00 -1.6452883667991035e+01 0.0000000000000000e+00 0.0000000000000000e+00 0.0000000000000000e+00 0.0000000000000000e+00  1.9575304289077909e+01 1.3110617155819908e+00 0.0000000000000000e+00 1.3110617155819908e+00 1.7936156709886969e+01 0.0000000000000000e+00 0.0000000000000000e+00 0.0000000000000000e+00 0.0000000000000000e+00  2.0833667689985280e+01 7.5270554721199301e-01 0.0000000000000000e+00 7.5270554721199301e-01 2.1404525829988536e+01 0.0000000000000000e+00 0.0000000000000000e+00 0.0000000000000000e+00 0.0000000000000000e+00  2.1144702482311217e+01 -3.1736038989452725e-01 0.0000000000000000e+00 -3.1736038989452725e-01 1.8841449200442732e+01 0.0000000000000000e+00 0.0000000000000000e+00 0.0000000000000000e+00 0.0000000000000000e+00  8.4179279373631815e+00 -1.0839719803793567e+01 0.0000000000000000e+00 -1.0839719803793567e+01 2.7530055998671703e+01 0.0000000000000000e+00 0.0000000000000000e+00 0.0000000000000000e+00 0.0000000000000000e+00  5.6815404632977973e+01 -1.6947290180147384e+01 0.0000000000000000e+00 -1.6947290180147384e+01 -2.8461301557799274e+01 0.0000000000000000e+00 0.0000000000000000e+00 0.0000000000000000e+00 0.0000000000000000e+00  1.0629606762841927e+02 -8.6259801852424218e+01 0.0000000000000000e+00 -8.6259801852424218e+01 -8.0769838931339052e+01 0.0000000000000000e+00 0.0000000000000000e+00 0.0000000000000000e+00 0.0000000000000000e+00  7.9720180856265983e+01 -7.4808749382709635e+01 0.0000000000000000e+00 -7.4808749382709635e+01 -6.1458577787552251e+01 0.0000000000000000e+00 0.0000000000000000e+00 0.0000000000000000e+00 0.0000000000000000e+00  2.7782866794603535e+01 3.3456953696346417e+01 0.0000000000000000e+00 3.3456953696346417e+01 -5.3251973407226503e+00 0.0000000000000000e+00 0.0000000000000000e+00 0.0000000000000000e+00 0.0000000000000000e+00  1.7936241638245026e+01 6.7367384624211837e+01 0.0000000000000000e+00 6.7367384624211837e+01 2.0164163943676904e+01 0.0000000000000000e+00 0.0000000000000000e+00 0.0000000000000000e+00 0.0000000000000000e+00  -2.5286519944730607e+01 -1.3347199425853510e+01 0.0000000000000000e+00 -1.3347199425853510e+01 4.6793380521445947e+01 0.0000000000000000e+00 0.0000000000000000e+00 0.0000000000000000e+00 0.0000000000000000e+00  -1.0952371229308760e+02 -5.4819816844046471e+01 0.0000000000000000e+00 -5.4819816844046471e+01 1.3716206062807555e+02 0.0000000000000000e+00 0.0000000000000000e+00 0.0000000000000000e+00 0.0000000000000000e+00  -3.2641327460486373e+01 -5.9941476739811080e+01 0.0000000000000000e+00 -5.9941476739811080e+01 5.3105813074599347e+01 0.0000000000000000e+00 0.0000000000000000e+00 0.0000000000000000e+00 0.0000000000000000e+00  2.7607982053992561e+01 -2.9012420418151788e+01 0.0000000000000000e+00 -2.9012420418151788e+01 2.5042600198809279e+01 0.0000000000000000e+00 0.0000000000000000e+00 0.0000000000000000e+00 0.0000000000000000e+00  8.0629115691015571e+01 -6.0332905262209920e+01 0.0000000000000000e+00 -6.0332905262209920e+01 -3.8040732322747552e+01 0.0000000000000000e+00 0.0000000000000000e+00 0.0000000000000000e+00 0.0000000000000000e+00  9.0079416585865474e+01 -8.9205177694501501e+01 0.0000000000000000e+00 -8.9205177694501501e+01 -8.3275897421405489e+01 0.0000000000000000e+00 0.0000000000000000e+00 0.0000000000000000e+00 0.0000000000000000e+00  5.1005612778324775e+01 -3.6704479762155863e+01 0.0000000000000000e+00 -3.6704479762155863e+01 -2.1547183801030936e+01 0.0000000000000000e+00 0.0000000000000000e+00 0.0000000000000000e+00 0.0000000000000000e+00  -8.0468360847985962e-02 -1.6403131851807435e+00 0.0000000000000000e+00 -1.6403131851807435e+00 7.9499783663145926e+00 0.0000000000000000e+00 0.0000000000000000e+00 0.0000000000000000e+00 0.0000000000000000e+00  -3.8959165768852493e+01 -3.9544830620623493e+01 0.0000000000000000e+00 -3.9544830620623493e+01 7.0554628748203299e+01 0.0000000000000000e+00 0.0000000000000000e+00 0.0000000000000000e+00 0.0000000000000000e+00  -2.4305327639018694e+02 -9.9674159581097101e+01 0.0000000000000000e+00 -9.9674159581097101e+01 2.4215103068370058e+02 0.0000000000000000e+00 0.0000000000000000e+00 0.0000000000000000e+00 0.0000000000000000e+00  -2.8184221844947075e+02 -4.5999091455347823e+01 0.0000000000000000e+00 -4.5999091455347823e+01 2.7900613246594190e+02 0.0000000000000000e+00 0.0000000000000000e+00 0.0000000000000000e+00 0.0000000000000000e+00  -1.9016457761475093e+02 2.0909412744156629e+01 0.0000000000000000e+00 2.0909412744156629e+01 2.1632218143399231e+02 0.0000000000000000e+00 0.0000000000000000e+00 0.0000000000000000e+00 0.0000000000000000e+00  -9.0470027212852443e+01 7.2563855330564181e+01 0.0000000000000000e+00 7.2563855330564181e+01 8.8124161192444504e+01 0.0000000000000000e+00 0.0000000000000000e+00 0.0000000000000000e+00 0.0000000000000000e+00  -1.2883247329015395e+01 3.1417913547816049e+01 0.0000000000000000e+00 3.1417913547816049e+01 1.9556726993844105e+01 0.0000000000000000e+00 0.0000000000000000e+00 0.0000000000000000e+00 0.0000000000000000e+00  4.0610518914775845e-01 5.7116448973542262e+00 0.0000000000000000e+00 5.7116448973542262e+00 1.3756199653130146e+01 0.0000000000000000e+00 0.0000000000000000e+00 0.0000000000000000e+00 0.0000000000000000e+00  -2.4851032516404206e+02 1.4010362660867193e+02 0.0000000000000000e+00 1.4010362660867193e+02 -3.1991076450565423e+01 0.0000000000000000e+00 0.0000000000000000e+00 0.0000000000000000e+00 0.0000000000000000e+00  4.4362839431466404e+02 2.7974881177617135e+02 0.0000000000000000e+00 2.7974881177617135e+02 1.1215770924523758e+02 0.0000000000000000e+00 0.0000000000000000e+00 0.0000000000000000e+00 0.0000000000000000e+00  1.1286152335311355e+01 1.2706005564518892e+02 0.0000000000000000e+00 1.2706005564518892e+02 2.2774043557784487e+00 0.0000000000000000e+00 0.0000000000000000e+00 0.0000000000000000e+00 0.0000000000000000e+00  2.4945558015403101e+01 -1.8752505050610120e+00 0.0000000000000000e+00 -1.8752505050610120e+00 2.0487306245638109e+01 0.0000000000000000e+00 0.0000000000000000e+00 0.0000000000000000e+00 0.0000000000000000e+00  3.4891185591469622e+01 6.8266190794208716e+00 0.0000000000000000e+00 6.8266190794208716e+00 1.2676762211330585e+01 0.0000000000000000e+00 0.0000000000000000e+00 0.0000000000000000e+00 0.0000000000000000e+00  -2.5257435657584573e+01 5.2080885051993722e+00 0.0000000000000000e+00 5.2080885051993722e+00 -1.8784500115189754e+01 0.0000000000000000e+00 0.0000000000000000e+00 0.0000000000000000e+00 0.0000000000000000e+00  1.3902777995279971e+01 -2.2954447650241926e+02 0.0000000000000000e+00 -2.2954447650241926e+02 -6.0288969951335023e+00 0.0000000000000000e+00 0.0000000000000000e+00 0.0000000000000000e+00 0.0000000000000000e+00  1.3909501183353866e+01 1.3179013881044222e+02 0.0000000000000000e+00 1.3179013881044222e+02 2.1915460113643189e+01 0.0000000000000000e+00 0.0000000000000000e+00 0.0000000000000000e+00 0.0000000000000000e+00  1.1902972415253534e+02 -8.5308114704451711e+01 0.0000000000000000e+00 -8.5308114704451711e+01 2.5266154170874678e+01 0.0000000000000000e+00 0.0000000000000000e+00 0.0000000000000000e+00 0.0000000000000000e+00  2.1711598299272683e+01 1.3936436029393420e+02 0.0000000000000000e+00 1.3936436029393420e+02 2.3071099971918041e+01 0.0000000000000000e+00 0.0000000000000000e+00 0.0000000000000000e+00 0.0000000000000000e+00  1.3101129065989364e+01 4.5354744784957589e+01 0.0000000000000000e+00 4.5354744784957589e+01 3.3234822495588467e+01 0.0000000000000000e+00 0.0000000000000000e+00 0.0000000000000000e+00 0.0000000000000000e+00  2.6667134206506994e+01 -1.6782181372119012e-01 0.0000000000000000e+00 -1.6782181372119012e-01 2.5295606357338162e+01 0.0000000000000000e+00 0.0000000000000000e+00 0.0000000000000000e