<?xml version="1.0"?>
<VTKFile type="UnstructuredGrid"  version="0.1"  >
<UnstructuredGrid>
<Piece  NumberOfPoints="5185" NumberOfCells="10070">
<Points>
<DataArray  type="Float64"  NumberOfComponents="3"  format="ascii">0 1.5 0  0 0 0  0.1232405621108402 0 0  0.1232405621108402 0.02253860454731437 0  0.1476111412843772 0.06045996594834066 0  0.1886148129381372 0.07918571535047463 0  0.2332332010401509 0.07277055962836147 0  0.2673002826264945 0.0432512653964478 0  0.28 0 0  0.5342215165449864 0 0  0.5342215165449864 0.02394141003279682 0  0.5649999999999999 0.06062177826491071 0  0.6121553724366851 0.06893654271085457 0  0.6536231110183285 0.04499513267805775 0  0.6699999999999999 0 0  0.91 0 0  0.9220577136594005 0.04499999999999999 0  0.9550000000000001 0.07794228634059948 0  1 0.09 0  1.045 0.07794228634059946 0  1.077942286340599 0.04499999999999999 0  1.09 0 0  1.52324056211084 0 0  1.52324056211084 0.02253860454731437 0  1.547611141284377 0.06045996594834066 0  1.588614812938137 0.07918571535047463 0  1.633233201040151 0.07277055962836147 0  1.667300282626495 0.0432512653964478 0  1.68 0 0  1.84 0 0  1.857573593128807 0.04242640687119285 0  1.9 0.06 0  1.942426406871193 0.04242640687119285 0  1.96 0 0  2.22324056211084 0 0  2.22324056211084 0.02253860454731437 0  2.247611141284377 0.06045996594834066 0  2.288614812938137 0.07918571535047463 0  2.333233201040151 0.07277055962836147 0  2.367300282626494 0.0432512653964478 0  2.38 0 0  2.534221516544986 0 0  2.534221516544986 0.02394141003279682 0  2.565 0.06062177826491071 0  2.612155372436685 0.06893654271085457 0  2.653623111018328 0.04499513267805775 0  2.67 0 0  3 0 0  3 1.5 0  0 0.75 0  1.5 1.5 0  0 0.375 0  0.75 1.5 0  2.25 1.5 0  3 0.75 0  1.216228490499689 0.8069757125887627 0  1.965682393638027 0.8065702515463131 0  0.6025408912810675 0.8974591087189325 0  2.494676348647751 0.9946763486477508 0  2.356709259621435 0.5447946099875809 0  0.8599642199210003 0.5226206461323684 0  0.4216394361293908 0.4974105777134379 0  0.375 1.5 0  0 1.125 0  1.875 1.5 0  1.591091407334617 1.058091082812092 0  1.125 1.5 0  1.590810830624645 0.5394732912049653 0  0.9375 1.13479915923725 0  3 0.375 0  3 1.125 0  2.625 1.5 0  1.995245765771775 0.4277948434396763 0  2.145880954246818 1.137688199332401 0  1.227783477957362 0.427141979786574 0  2.705436295205127 0.5625 0  1.268702849688826 1.133996222613609 0  0.3526676910824388 1.147332308917561 0  0.3097907151415997 0.7889144057821572 0  0.903221947180751 0.828141240074398 0  0.6461527570085278 1.190944174645022 0  2.258488242757536 0.8210127920483788 0  2.400058919161888 1.260760484185309 0  2.778889354513028 0.9375 0  2.725079155390203 1.225079155390203 0  1.853608154101008 1.201589046866999 0  2.540576981905353 0.3370046821869876 0  0.7811555507088518 0.2732832036972447 0  1.493222576519009 0.798835058995101 0  1.747409300790817 0.3184283662481822 0  1.459899526511598 0.3067772450698331 0  0.1875 1.5 0  0 0.5625 0  2.521594883841638 0.7403247928378012 0  0.2438476629309629 0.32244155773108 0  3 0.1875 0  2.776470677837637 0.28125 0  2.121241022911138 0.6281701698960991 0  1.728545483402697 0.8581016441191361 0  1.012422318322288 0.3271268474523591 0  2.305755967143385 0.3144626442661202 0  1.30662028105542 0 0  1.6875 1.5 0  1.8265892939935 0.6051726401583923 0  0.5458598773451642 0.2962606377138959 0  0 0.9375 0  1.349377516922966 0.6209336375388498 0  1.079656249611334 0.612728400373996 0  0.7151087041654347 0.6989529576230681 0  2.0625 1.5 0  1.59375 1.288981971791887 0  2.085107439753329 0.2191742438537923 0  0.6402689932842839 0.4934943541428904 0  1.228474271256239 0.2064231070567615 0  1.3125 1.5 0  1.06968030723948 0.9647793670181679 0  0.2113350105157037 0.5332932754427466 0  0 1.3125 0  0.5051540211699285 0.7110632261327643 0  0.4775171365050886 1.316467280173536 0  1.967112413780365 1.020384154410382 0  0.8191736043349165 1.304781661824189 0  1.103455205015878 1.280328263155604 0  0.7649318329201844 1.023310716596371 0  0.2120544860962804 0.9823800432730223 0  1.359100570345391 0.9517705003379791 0  0.1711043107784345 1.21875 0  3 1.3125 0  2.8125 1.5 0  2.714178691455841 0.7554813872281284 0  2.217815962767571 1.313132398873298 0  2.020480176543968 1.307095379623413 0  2.29875620117699 1.013690599387144 0  0.3848285295772316 0.1937040883803935 0  0.9375 1.5 0  3 0.9375 0  2.4375 1.5 0  3 0.5625 0  0 0.1875 0  0.5625 1.5 0  2.835 0 0  1.386383673099448 1.305536509588035 0  1.773513842966063 1.0362399691084 0  2.179843036592861 0.4515211056338026 0  0.4134910794700652 0.9582824971065591 0  2.107214813096467 0.9125353945687058 0  1.916698009609654 0.2702971158297667 0  2.533006985360663 0.5155509623987015 0  2.838574938309606 0.4465309273225452 0  0.3016597101560133 1.338635596991575 0  1.641573393474498 0.7066136805426366 0  2.855238878880983 0.65625 0  1.398074618385877 0.1459865472102536 0  1.756539173374812 1.342993235461221 0  2.434593137832078 0.2067018044975929 0  1.434366740555482 0.4743139981449843 0  1.440742946818836 1.142108619191562 0  0.549043549720087 1.055391704395 0  2.571565919072277 1.32487216700893 0  2.535776521770127 1.159155922815097 0  2.652193336606067 1.04269083214613 0  0.660031172970541 1.35825582857438 0  2.607645482283307 0.8780318994093907 0  1.09590027081365 1.121554905778777 0  0.1474979543625655 0.8283466240195498 0  1.056776372361757 0.7739494406659941 0  0.3647560414155882 0.6427945145874604 0  1.699724067482516 1.17405657891935 0  0.913786173488833 0.9822051271795349 0  0.9283491691592597 0.66876089182342 0  0.7498959802087029 0.8498501951910959 0  0.3951228082283652 0.3465404522808934 0  1.23887612906836 1.360760366473919 0  0.1206420558503055 0.65625 0  1.735537276557186 0.4760109437618505 0  1.799297742536812 0.1791526413061006 0  1.970987958006469 0.6541756362249113 0  1.080810552147559 0.461742062484039 0  2.268149337929528 0.6688757993926466 0  2.413602460817152 0.8574959373397593 0  2.833998248858927 1.096635576389 0  2.71875 1.378451438260757 0  2.001906612723158 1.162230131308666 0  2.859452984352005 0.8083820929207302 0  2.688478120768856 0.4086214703657035 0  1.214106348747711 0.9519545202622776 0  2.850368184690094 1.307066142740315 0  1.864893983840636 0.9141560734025058 0  1.60661446108863 0.2395589708587393 0  1.61163060570479 0.3901968276506504 0  2.771867619212225 0.1335769833684914 0  0.7969119039620236 1.163109784140262 0  0.9599416701963486 1.276596315583475 0  2.103624150445193 0.7698297553089299 0  2.279721363034605 1.185280797873663 0  2.34375 1.392122382816539 0  0.1382307077648764 1.361769292235123 0  0.1426478344893104 0.2175212356047023 0  2.406413880432258 1.104106228251116 0  2.414971181397263 0.4111042519521358 0  2.637277274673136 0.2192348292007474 0  1.353600469573883 0.7646239317376279 0  1.494012125944227 0.651091825511382 0  1.590274899157226 0.9102986199774393 0  1.028633500752755 1.396325660524358 0  1.829615743479497 0.7518128394998403 0  1.861059000344659 0.3963812297683985 0  0.510900777690535 1.185277566959035 0  1.213080286311768 0.6640546084318578 0  0.79 0 0  0.8167897395818556 0.1376517357725223 0  0.9319739747594649 0.2144569310211157 0  1.889188139713804 1.330032757791382 0  0.655714683266079 0.2049689967103183 0  2.09162028105542 0 0  0.1359367774292784 0.4137345801986589 0  0.4380798275211911 0.8267965724704243 0  2.40400705830434 0.6721965963037969 0  0.3027633520173528 0.4394586980387968 0  0.8782788855287165 0.379708545377904 0  0.7595213470930909 0.4371189613680841 0  1.317967779309324 0.3170637160852436 0  0.6053759621699666 0.6225641226781395 0  0.6530309552265516 0.3661735489900947 0  2.594089294631991 0.631328821944253 0  0 1.03125 0  0.1304283746114646 1.089970844689444 0  0.4071107582724932 0 0  1.469526282978338 1.017083854458662 0  1.088959023533499 0.2104112015424126 0  1.161808378403757 0.3165749773273478 0  2.172966779463329 0.3188379172988492 0  2.216343768168092 0.1920401700474863 0  3 0.09375 0  1.905024675365066 0.5108806275986008 0  1.702014103004408 0.5963171944847371 0  0.2428042557945101 0.6514309613450368 0  3 1.40625 0  0.262372466757009 0.191725613649506 0  2.116791485436391 1.387145016777417 0  1.96875 1.5 0  2.885528053432104 0.3345800153572822 0  2.875601419873791 0.2042517854891826 0  2.298911783255236 0.4400662366556407 0  2.459247322083259 1.363881377923602 0  0.9735587139454543 0.5585353431007029 0  1.176315140569268 0.5379697839544898 0  2.0296370010214 0.5459700999805513 0  0.4987416453488727 0.4060939323248423 0  0.5397511702990104 0.1771676763212877 0  3 1.21875 0  2.238710633113112 0.5542203056099733 0  1.19831014052771 0 0  1.583962270593198 1.173633921912192 0  1.650563144166832 1.390075718520202 0  1.496025571730155 1.371899864460592 0  3 1.03125 0  2.887481932992674 0.9890041589451042 0  0.247836885460272 1.094286258989912 0  0.4719220056590702 0.6009044603312741 0  1.97565550452845 0.1615660574331665 0  2.131135530378305 0.1108580974478677 0  1.318642333542132 0.5051755928544708 0  1.217460132329928 1.242599824876711 0  1.511891312109549 0.1714963794002952 0  2.174601400318987 1.01685942781215 0  0.9082882406313817 1.384236564302014 0  0.6140422604397168 0.7728109899968187 0  0.8289359680247524 0.7347587321432018 0  0.741509926624258 0.5729763888559004 0  2.058356323822746 0.3313153147701495 0  0.4534336320756143 0.1034622594748756 0  1.40625 1.5 0  1.689084537897351 0.9628079283127213 0  1.156270839633873 0.1228556218721798 0  1.29033806179015 0.1118395069726669 0  1.460859151915469 0.9057320169622244 0  2.326558662668462 0.1831424028173474 0  0.9693052477371982 0.4460054238200853 0  0.6625304018229865 1.076650755704414 0  1.41493042158313 0 0  0.4485426513928407 1.096421738127594 0  0.2454589766548061 0.8778352103982039 0  0.1115239912906509 0.9339683416032414 0  1.134782462834443 0.8782884736059876 0  0.9999448991609674 1.04695529392896 0  0.9835215815673453 0.9000292002687431 0  2.53125 1.5 0  0.3175564878698739 1.010319294269645 0  1.971944763694389 0.9134401013848152 0  2.06
[...]
<PointData  Tensors="f_1062"> 
<DataArray  type="Float64"  Name="f_1062"  NumberOfComponents="9" format="ascii">-3.5441701438516904e+00 -1.6545612443726718e+00 0.0000000000000000e+00 -1.6545612443726718e+00 -1.9384321095843447e+01 0.0000000000000000e+00 0.0000000000000000e+00 0.0000000000000000e+00 0.0000000000000000e+00  3.2347537204721057e+01 3.1866554410221353e+00 0.0000000000000000e+00 3.1866554410221353e+00 3.5096716091004147e+01 0.0000000000000000e+00 0.0000000000000000e+00 0.0000000000000000e+00 0.0000000000000000e+00  4.5721411405086371e+01 -9.8791037576909719e+00 0.0000000000000000e+00 -9.8791037576909719e+00 1.7450043397738309e+01 0.0000000000000000e+00 0.0000000000000000e+00 0.0000000000000000e+00 0.0000000000000000e+00  8.6985870499605184e+01 2.1029858189419958e+01 0.0000000000000000e+00 2.1029858189419958e+01 -3.7063010169124929e+01 0.0000000000000000e+00 0.0000000000000000e+00 0.0000000000000000e+00 0.0000000000000000e+00  9.3325064634280437e+01 1.1040348007015368e+01 0.0000000000000000e+00 1.1040348007015368e+01 -4.8084650290285083e+01 0.0000000000000000e+00 0.0000000000000000e+00 0.0000000000000000e+00 0.0000000000000000e+00  3.4264839351301603e+01 5.4602122576670062e+01 0.0000000000000000e+00 5.4602122576670062e+01 2.8730712950550163e+01 0.0000000000000000e+00 0.0000000000000000e+00 0.0000000000000000e+00 0.0000000000000000e+00  6.2711632566005072e+01 5.0159266765214014e+01 0.0000000000000000e+00 5.0159266765214014e+01 -7.4615474093590466e+00 0.0000000000000000e+00 0.0000000000000000e+00 0.0000000000000000e+00 0.0000000000000000e+00  1.6145808046377638e+01 2.6820109500727305e+01 0.0000000000000000e+00 2.6820109500727305e+01 3.7995825021389180e+01 0.0000000000000000e+00 0.0000000000000000e+00 0.0000000000000000e+00 0.0000000000000000e+00  2.1020591381841410e+01 -4.5242382135642956e+00 0.0000000000000000e+00 -4.5242382135642956e+00 3.9423455858471485e+01 0.0000000000000000e+00 0.0000000000000000e+00 0.0000000000000000e+00 0.0000000000000000e+00  2.0279442116482645e+01 2.7438575950651639e-01 0.0000000000000000e+00 2.7438575950651639e-01 3.0815361401996991e+01 0.0000000000000000e+00 0.0000000000000000e+00 0.0000000000000000e+00 0.0000000000000000e+00  -6.0691889899462637e+01 -3.9799602544888295e+01 0.0000000000000000e+00 -3.9799602544888295e+01 9.1598652776155276e+01 0.0000000000000000e+00 0.0000000000000000e+00 0.0000000000000000e+00 0.0000000000000000e+00  -7.1416369243347646e+01 1.7587829113466388e+01 0.0000000000000000e+00 1.7587829113466388e+01 1.1945660409920725e+02 0.0000000000000000e+00 0.0000000000000000e+00 0.0000000000000000e+00 0.0000000000000000e+00  -6.2333787528286448e+00 -8.8635900322299701e+00 0.0000000000000000e+00 -8.8635900322299701e+00 8.0010368046717886e+01 0.0000000000000000e+00 0.0000000000000000e+00 0.0000000000000000e+00 0.0000000000000000e+00  -8.2591147982830478e+01 1.5490464496585103e+01 0.0000000000000000e+00 1.5490464496585103e+01 1.2318381421615420e+02 0.0000000000000000e+00 0.0000000000000000e+00 0.0000000000000000e+00 0.0000000000000000e+00  2.9491109992798602e+01 8.6239328012321028e+00 0.0000000000000000e+00 8.6239328012321028e+00 3.1563368303847287e+01 0.0000000000000000e+00 0.0000000000000000e+00 0.0000000000000000e+00 0.0000000000000000e+00  1.7047270531796556e+01 -1.2374209964195392e+01 0.0000000000000000e+00 -1.2374209964195392e+01 4.6907054282259580e+01 0.0000000000000000e+00 0.0000000000000000e+00 0.0000000000000000e+00 0.0000000000000000e+00  -2.0186160476880897e+01 -3.9758080000091219e+01 0.0000000000000000e+00 -3.9758080000091219e+01 6.6911556622663028e+01 0.0000000000000000e+00 0.0000000000000000e+00 0.0000000000000000e+00 0.0000000000000000e+00  2.2482732585218997e+01 -4.3401109428943464e+01 0.0000000000000000e+00 -4.3401109428943464e+01 1.7535835347136729e+01 0.0000000000000000e+00 0.0000000000000000e+00 0.0000000000000000e+00 0.0000000000000000e+00  3.6146678036126239e+01 -6.1358892011684347e+01 0.0000000000000000e+00 -6.1358892011684347e+01 1.1169986043290130e+00 0.0000000000000000e+00 0.0000000000000000e+00 0.0000000000000000e+00 0.0000000000000000e+00  7.8841341848432322e+01 6.9771191223983369e+00 0.0000000000000000e+00 6.9771191223983369e+00 -3.6228073956912446e+01 0.0000000000000000e+00 0.0000000000000000e+00 0.0000000000000000e+00 0.0000000000000000e+00  1.2194530996107935e+02 -3.9604668869650965e+01 0.0000000000000000e+00 -3.9604668869650965e+01 -8.5511909486875055e+01 0.0000000000000000e+00 0.0000000000000000e+00 0.0000000000000000e+00 0.0000000000000000e+00  3.2102538016136982e+01 3.9401595670266767e+00 0.0000000000000000e+00 3.9401595670266767e+00 1.3824115256199004e+01 0.0000000000000000e+00 0.0000000000000000e+00 0.0000000000000000e+00 0.0000000000000000e+00  1.2138118509630919e+01 5.3585990779524870e+00 0.0000000000000000e+00 5.3585990779524870e+00 2.8446874084586405e+01 0.0000000000000000e+00 0.0000000000000000e+00 0.0000000000000000e+00 0.0000000000000000e+00  -3.8303054051410657e+00 -1.5900757494166465e+01 0.0000000000000000e+00 -1.5900757494166465e+01 4.9687176419519766e+01 0.0000000000000000e+00 0.0000000000000000e+00 0.0000000000000000e+00 0.0000000000000000e+00  2.5124602133126437e+01 -2.9173171108932511e+01 0.0000000000000000e+00 -2.9173171108932511e+01 1.9592742860645448e+01 0.0000000000000000e+00 0.0000000000000000e+00 0.0000000000000000e+00 0.0000000000000000e+00  2.4775618972073293e+01 -6.1607755559153397e+01 0.0000000000000000e+00 -6.1607755559153397e+01 3.5783723429606820e+00 0.0000000000000000e+00 0.0000000000000000e+00 0.0000000000000000e+00 0.0000000000000000e+00  7.9347930744892423e+01 -2.3565233440613383e+01 0.0000000000000000e+00 -2.3565233440613383e+01 -3.3270413705144911e+01 0.0000000000000000e+00 0.0000000000000000e+00 0.0000000000000000e+00 0.0000000000000000e+00  1.0551462837263125e+02 -2.3432655740625183e+01 0.0000000000000000e+00 -2.3432655740625183e+01 -7.7608131940213610e+01 0.0000000000000000e+00 0.0000000000000000e+00 0.0000000000000000e+00 0.0000000000000000e+00  6.4018338619109798e+01 1.7020593801409667e+01 0.0000000000000000e+00 1.7020593801409667e+01 -1.9214700253348450e+01 0.0000000000000000e+00 0.0000000000000000e+00 0.0000000000000000e+00 0.0000000000000000e+00  2.6678706616331628e+01 -7.4080054335618395e-01 0.0000000000000000e+00 -7.4080054335618395e-01 1.0619971530909153e+01 0.0000000000000000e+00 0.0000000000000000e+00 0.0000000000000000e+00 0.0000000000000000e+00  5.0700935419387079e+01 -1.7220839494868951e+01 0.0000000000000000e+00 -1.7220839494868951e+01 -1.3506378035374562e+00 0.0000000000000000e+00 0.0000000000000000e+00 0.0000000000000000e+00 0.0000000000000000e+00  3.3680356045780684e+01 -7.4034906504074542e+01 0.0000000000000000e+00 -7.4034906504074542e+01 9.3046550950012001e+00 0.0000000000000000e+00 0.0000000000000000e+00 0.0000000000000000e+00 0.0000000000000000e+00  5.9800989230570650e+01 -2.3215491962290173e+01 0.0000000000000000e+00 -2.3215491962290173e+01 -2.5922271192295170e+01 0.0000000000000000e+00 0.0000000000000000e+00 0.0000000000000000e+00 0.0000000000000000e+00  4.9698089043748546e+01 7.3243880387884763e+00 0.0000000000000000e+00 7.3243880387884763e+00 -1.5505887092912603e+01 0.0000000000000000e+00 0.0000000000000000e+00 0.0000000000000000e+00 0.0000000000000000e+00  1.4827685264166705e+01 -5.7214397517026894e-01 0.0000000000000000e+00 -5.7214397517026894e-01 1.1120761538504407e+01 0.0000000000000000e+00 0.0000000000000000e+00 0.0000000000000000e+00 0.0000000000000000e+00  8.8151458499577785e+01 2.6449653179489729e+01 0.0000000000000000e+00 2.6449653179489729e+01 -3.5489990194543203e+01 0.0000000000000000e+00 0.0000000000000000e+00 0.0000000000000000e+00 0.0000000000000000e+00  8.6449105422216547e+01 -1.0552475665318223e+01 0.0000000000000000e+00 -1.0552475665318223e+01 -7.1384329020407122e+01 0.0000000000000000e+00 0.0000000000000000e+00 0.0000000000000000e+00 0.0000000000000000e+00  3.6047525475424187e+01 1.2204004908615877e+01 0.0000000000000000e+00 1.2204004908615877e+01 -7.6056966686391148e+00 0.0000000000000000e+00 0.0000000000000000e+00 0.0000000000000000e+00 0.0000000000000000e+00  1.0324106503498596e+01 2.5301514977318337e+01 0.0000000000000000e+00 2.5301514977318337e+01 2.0752545730659786e+01 0.0000000000000000e+00 0.0000000000000000e+00 0.0000000000000000e+00 0.0000000000000000e+00  -3.7970155118156789e+01 3.9751677836167893e+01 0.0000000000000000e+00 3.9751677836167893e+01 6.4851337695223549e+01 0.0000000000000000e+00 0.0000000000000000e+00 0.0000000000000000e+00 0.0000000000000000e+00  5.2458045490470200e+00 -1.0813110332472182e+00 0.0000000000000000e+00 -1.0813110332472182e+00 3.0273499998917476e+01 0.0000000000000000e+00 0.0000000000000000e+00 0.0000000000000000e+00 0.0000000000000000e+00  1.8149385396417355e+01 -4.0822354063998851e+00 0.0000000000000000e+00 -4.0822354063998851e+00 5.7030755605019490e+00 0.0000000000000000e+00 0.0000000000000000e+00 0.0000000000000000e+00 0.0000000000000000e+00  1.0465775218353926e+02 2.1903211359081478e+01 0.0000000000000000e+00 2.1903211359081478e+01 -5.4328332776368391e+01 0.0000000000000000e+00 0.0000000000000000e+00 0.0000000000000000e+00 0.0000000000000000e+00  1.0080730196278323e+02 -2.1046993407849012e+01 0.0000000000000000e+00 -2.1046993407849012e+01 -8.1361846645477200e+01 0.0000000000000000e+00 0.0000000000000000e+00 0.0000000000000000e+00 0.0000000000000000e+00  1.4457878129192794e+00 -1.3247454006957346e+01 0.0000000000000000e+00 -1.3247454006957346e+01 2.0393569496170723e+01 0.0000000000000000e+00 0.0000000000000000e+00 0.0000000000000000e+00 0.0000000000000000e+00  -7.1744780745544858e+01 2.8164378099307299e+01 0.0000000000000000e+00 2.8164378099307299e+01 9.9530076065836241e+01 0.0000000000000000e+00 0.0000000000000000e+00 0.0000000000000000e+00 0.0000000000000000e+00  4.9261668853459462e+00 -5.0268684324369799e+00 0.0000000000000000e+00 -5.0268684324369799e+00 7.2631809271038259e+00 0.0000000000000000e+00 0.0000000000000000e+00 0.0000000000000000e+00 0.0000000000000000e+00  -3.4977678309147365e+02 1.3752861648601990e+02 0.0000000000000000e+00 1.3752861648601990e+02 7.8139650641360809e+00 0.0000000000000000e+00 0.0000000000000000e+00 0.0000000000000000e+00 0.0000000000000000e+00  3.8085007126643222e+02 2.3359725145008841e+02 0.0000000000000000e+00 2.3359725145008841e+02 9.1413440649367757e+01 0.0000000000000000e+00 0.0000000000000000e+00 0.0000000000000000e+00 0.0000000000000000e+00  1.3032538490330849e+01 9.6335800634850600e+01 0.0000000000000000e+00 9.6335800634850600e+01 1.0143315889452931e+00 0.0000000000000000e+00 0.0000000000000000e+00 0.0000000000000000e+00 0.0000000000000000e+00  3.9660392619425751e+00 6.3424688434806358e+00 0.0000000000000000e+00 6.3424688434806358e+00 -2.3894541994143420e+01 0.0000000000000000e+00 0.0000000000000000e+00 0.0000000000000000e+00 0.0000000000000000e+00  1.6342072439665078e+01 1.0699625552514820e+02 0.0000000000000000e+00 1.0699625552514820e+02 2.2281106850441361e+01 0.0000000000000000e+00 0.0000000000000000e+00 0.0000000000000000e+00 0.0000000000000000e+00  -2.3334172089479150e+01 1.9984256519675636e+01 0.0000000000000000e+00 1.9984256519675636e+01 2.6196862048015364e+00 0.0000000000000000e+00 0.0000000000000000e+00 0.0000000000000000e+00 0.0000000000000000e+00  -3.0898964276411238e+01 -2.1216924982364187e+01 0.0000000000000000e+00 -2.1216924982364187e+01 -4.1975344845856686e+00 0.0000000000000000e+00 0.0000000000000000e+00 0.0000000000000000e+00 0.0000000000000000e+00  -1.2778576420134579e+01 -2.0084926136485717e+02 0.0000000000000000e+00 -2.0084926136485717e+02 9.7995087753059238e+00 0.0000000000000000e+00 0.0000000000000000e+00 0.0000000000000000e+00 0.0000000000000000e+00  3.9354957499240513e+00 -9.2356712989924912e+00 0.0000000000000000e+00 -9.2356712989924912e+00 3.7908915431049186e+00 0.0000000000000000e+00 0.0000000000000000e+00 0.0000000000000000e+00 0.0000000000000000e+00  1.7935433814428541e+00 8.9546136018225173e+00 0.0000000000000000e+00 8.9546136018225191e+00 1.4643492463952497e+00 0.0000000000000000e+00 0.0000000000000000e+00 0.0000000000000000e+00 0.0000000000000000e+00  3.5606600809611400e+00 -1.5537235223313099e+00 0.0000000000000000e+00 -1.5537235223313099e+00 3.4858800844283455e+00 0.0000000000000000e+00 0.0000000000000000e+00 0.0000000000000000e+00 0.0000000000000000e+00  -2.4358624358956349e+00 -2.4329695894073357e+01 0.0000000000000000e+00 -2.4329695894073357e+01 -2.8723441743067597e+00 0.0000000000000000e+00 0.0000000000000000e+00 0.0000000000000000e+00 0.0000000000000000e+00  4.9729301417631175e+00 2.2345929989121007e+01 0.0000000000000000e+00 2.2345929989121007e+01 5.2796073836219310e+00 0.0000000000000000e+00 0.0000000000000000e+00 0.0000000000000000e+00 0.0000000000000000e+00  1.2064055320986601e+01 2.0611523509908384e+01 0.0000000000000000e+00 2.0611523509908384e+01 1.2029077530946992e+01 0.0000000000000000e+00 0.0000000000000000e+00 0.0000000000000000e+00 0.0000000000000000e+00  1.4432435931069538e+01 -1.5665994159882301e+01 0.0000000000000000e+00 -1.5665994159882301e+01 1.4106759191021009e+01 0.0000000000000000e+00 0.0000000000000000e+00 0.0000000000000000e+00 0.0000000000000000e+00  -8.5666168929968709e+00 -9.1158335757407912e+01 0.0000000000000000e+00 -9.1158335757407912e+01 -1.0189816916533092e+01 0.0000000000000000e+00 0.0000000000000000e+00 0.0000000000000000e+00 0.0000000000000000e+00  -4.3018426852404428e+00 1.0295827517715738e+02 0.0000000000000000e+00 1.0295827517715738e+02 2.2067276778869633e+00 0.0000000000000000e+00 0.0000000000000000e+00 0.0000000000000000e+00 0.0000000000000000e+00  -2.8425213208666555e+01 -1.0273176945212970e+02 0.0000000000000000e+00 -1.0273176945212970e+02 -8.0471992830620547e+00 0.0000000000000000e+00 0.0000000000000000e+00 0.0000000000000000e+00 0.0000000000000000e+00  -3.0746162323086978e+00 -2.5717205790708785e+01 0.0000000000000000e+00 -2.5717205790708785e+01 -3.5221169901560887e+00 0.0000000000000000e+00 0.0000000000000000e+00 0.0000000000000000e+00 0.0000000000000000e+00  -2.8578398331196027e+01 1.1162380842380369e+02 0.0000000000000000e+00 1.1162380842380369e+02 -1.1330939373690473e+01 0.0000000000000000e+00 0.0000000000000000e+00 0.0000000000000000e+00 0.0000000000000000e+00  8.8400722116745278e+00 -2.5457392397271136e+01 0.0000000000000000e+00 -2.5457392397271136e+01 9.1927041396106297e+00 0.0000000000000000e+00 0.0000000000000000e+00 0.0000000000000000e+00 0.0000000000000000e+00  -3.3188015889567550e+00 -1.9551640565169667e+01 0.0000000000000000e+00 -1.9551640565169667e+01 -3.5953380215351975e+00 0.0000000000000000e+00 0.0000000000000000e+00 0.0000000000000000e+00 0.0000000000000000e+00  1.1514698666208413e+02 -1.0576112548096826e+02 0.0000000000000000e+00 -1.0576112548096826e+02 6.4134011687191146e+00 0.0000000000000000e+00 0.0000000000000000e+00 0.0000000000000000e+00 0.0000000000000000e+00  -2.3843069071144035e+02 -3.5906832735374360e+02 0.0000000000000000e+00 -3.5906832735374360e+02 -2.0548065741196719e+01 0.0000000000000000e+00 0.0000000000000000e+00 0.0000000000000000e+00 0.0000000000000000e+00  -1.3740404252773706e+01 4.6795147519240707e+01 0.0000000000000000e+00 4.6795147519240707e+01 -1.3469024283017150e+01 0.0000000000000000e+00 0.0000000000000000e+00 0.0000000000000000e+00 0.0000000000000000e+00  9.4327836048643121e+00 2.3365330021457225e+01 0.0000000000000000e+00 2.3365330021457225e+01 9.9262272394920270e+00 0.0000000000000000e+00 0.0000000000000000e+00 0.0000000000000000e+00 0.0000000000000000e+00  -4.9257822842340939e+00 -2.0907449212422136e+01 0.0000000000000000e+00 -2.0907449212422136e+01 -6.6434900181972516e+00 0.0000000000000000e+00 0.0000000000000000e+00 0.0000000000000000e+00 0.0000000000000000e+00  1.3121483066710899e+01 -1.4862722662123579e+01 0.0000000000000000e+00 -1.4862722662123579e+01 1.3032916729951289e+01 0.0000000000000000e+00 0.0000000000000000e+00 0.0000000000000000e+00 0.0000000000000000e+00  1.4540190838107492e+00 -2.2460557000941281e+00 0.0000000000000000e+00 -2.2460557000941281e+00 3.2226834725524545e+00 0.0000000000000000e+00 0.0000000000000000e+00 0.0000000000000000e+00 0.0000000000000000e+00  -4.0860012658397959e+00 -2.7525510303967234e+01 0.0000000000000000e+00 -2.7525510303967234e+01 -4.2568242155420197e+00 0.0000000000000000e+00 0.0000000000000000e+00 0.0000000000000000e+00 0.0000000000000000e+00  -2.0522179998928443e+00 -2.4571075995820358e+01 0.0000000000000000e+00 -2.4571075995820326e+01 -2.1005814000023491e+00 0.0000000000000000e+00 0.0000000000000000e+00 0.0000000000000000e+00 0.0000000000000000e+00  7.3233511852450475e+00 -5.4472019934716007e+00 0.0000000000000000e+00 -5.4472019934716007e+00 7.0874700627313114e+00 0.0000000000000000e+00 0.0000000000000000e+00 0.0000000000000000e+00 0.0000000000000000e+00  4.4036595632478797e+00 -1.5093958277669761e+00 0.0000000000000000e+00 -1.5093958277669761e+00 4.1692652645543928e+00 0.0000000000000000e+00 0.0000000000000000e+00 0.0000000000000000e+00 0.0000000000000000e+00  -3.8893309357831796e+00 -2.2702057354485476e+01 0.0000000000000000e+00 -2.2702057354485476e+01 -4.0101884794192362e+00 0.0000000000000000e+00 0.0000000000000000e+00 0.0000000000000000e+00 0.0000000000000000e+00  7.0321476407199612e-01 5.2827032964433922e+00 0.0000000000000000e+00 5.2827032964433922e+00 4.3549577295181980e-03 0.0000000000000000e+00 0.0000000000000000e+00 0.0000000000000000e+00 0.0000000000000000e+00  -5.4567306701479943e+00 3.6101502411038555e+00 0.0000000000000000e+00 3.6101502411038555e+00 -9.8990045880378954e+00 0.0000000000000000e+00 0.0000000000000000e+00 0.0000000000000000e+00 0.0000000000000000e+00  -1.7472771674709884e+00 -2.4059557267481225e+01 0.0000000000000000e+00 -2.4059557267481225e+01 -3.5604382104399013e-01 0.0000000000000000e+00 0.0000000000000000e+00 0.0000000000000000e+00 0.0000000000000000e+00  -2.6344022635352311e+00 -5.7643500961592693e+00 0.0000000000000000e+00 -5.7643500961592693e+00 -7.1187046912756022e+00 0.0000000000000000e+00 0.0000000000000000e+00 0.0000000000000000e+00 0.0000000000000000e+00  -6.5261689240672087e+00 -2.4076949608551789e+01 0.0000000000000000e+00 -2.4076949608551789e+01 -7.8782288407079486e+00 0.0000000000000000e+00 0.0000000000000000e+00 0.0000000000000000e+00 0.0000000000000000e+00  5.5858467586304394e+00 4.3708580286722393e-02 0.0000000000000000e+00 4.3708580286722393e-02 8.9182206465664109e+00 0.0000000000000000e+00 0.0000000000000000e+00 0.0000000000000000e+00 0.0000000000000000e+00  1.8608938371023328e+01 1.6174655736902526e+01 0.0000000000000000e+00 1.6174655736902526e+01 1.8759326638010847e+01 0.0000000000000000e+00 0.0000000000000000e+00 0.0000000000000000e+00 0.0000000000000000e+00  3.1896776343317050e+00 4.1715470581728784e+00 0.0000000000000000e+00 4.1715470581728784e+00 2.9884400587899420e+00 0.0000000000000000e+00 0.0000000000000000e+00 0.0000000000000000e+00 0.0000000000000000e+00  1.3039652161342270e+01 2.4495492253841345e+01 0.0000000000000000e+00 2.4495492253841345e+01 1.4001304156964714e+01 0.0000000000000000e+00 0.0000000000000000e+00 0.0000000000000000e+00 0.0000000000000000e+00  1.4643005526503922e+01 2.0599603263755178e+01 0.0000000000000000e+00 2.0599603263755178e+01 1.5765129963776921e+01 0.0000000000000000e+00 0.0000000000000000e+00 0.0000000000000000e+00 0.0000000000000000e+00  -3.0591356666641133e+01 7.6186813669985497e+01 0.0000000000000000e+00 7.6186813669985497e+01 6.5720670107901711e+00 0.0000000000000000e+00 0.0000000000000000e+00 0.0000000000000000e+00 0.0000000000000000e+00  1.3399498948195822e+01 1.0565988683931349e+02 0.0000000000000000e+00 1.0565988683931349e+02 1.5516520017024698e+01 0.0000000000000000e+00 0.0000000000000000e+00 0.0000000000000000e+00 0.0000000000000000e+00  8.7126456657391582e-01 -1.3634761819116985e+01 0.0000000000000000e+00 -1.3634761819116985e+01 1.5278655776387493e+00 0.0000000000000000e+00 0.0000000000000000e+00 0.0000000000000000e+00 0.0000000000000000e+00  1.9095377047164995e+01 2.5196534661452322e+01 0.0000000000000000e+00 2.5196534661452322e+01 1.9694918399014277e+01 0.0000000000000000e+00 0.0000000000000000e+00 0.00000