<?xml version="1.0"?>
<VTKFile type="UnstructuredGrid"  version="0.1"  >
<UnstructuredGrid>
<Piece  NumberOfPoints="5185" NumberOfCells="10070">
<Points>
<DataArray  type="Float64"  NumberOfComponents="3"  format="ascii">0 1.5 0  0 0 0  0.1232405621108402 0 0  0.1232405621108402 0.02253860454731437 0  0.1476111412843772 0.06045996594834066 0  0.1886148129381372 0.07918571535047463 0  0.2332332010401509 0.07277055962836147 0  0.2673002826264945 0.0432512653964478 0  0.28 0 0  0.5342215165449864 0 0  0.5342215165449864 0.02394141003279682 0  0.5649999999999999 0.06062177826491071 0  0.6121553724366851 0.06893654271085457 0  0.6536231110183285 0.04499513267805775 0  0.6699999999999999 0 0  0.91 0 0  0.9220577136594005 0.04499999999999999 0  0.9550000000000001 0.07794228634059948 0  1 0.09 0  1.045 0.07794228634059946 0  1.077942286340599 0.04499999999999999 0  1.09 0 0  1.52324056211084 0 0  1.52324056211084 0.02253860454731437 0  1.547611141284377 0.06045996594834066 0  1.588614812938137 0.07918571535047463 0  1.633233201040151 0.07277055962836147 0  1.667300282626495 0.0432512653964478 0  1.68 0 0  1.84 0 0  1.857573593128807 0.04242640687119285 0  1.9 0.06 0  1.942426406871193 0.04242640687119285 0  1.96 0 0  2.22324056211084 0 0  2.22324056211084 0.02253860454731437 0  2.247611141284377 0.06045996594834066 0  2.288614812938137 0.07918571535047463 0  2.333233201040151 0.07277055962836147 0  2.367300282626494 0.0432512653964478 0  2.38 0 0  2.534221516544986 0 0  2.534221516544986 0.02394141003279682 0  2.565 0.06062177826491071 0  2.612155372436685 0.06893654271085457 0  2.653623111018328 0.04499513267805775 0  2.67 0 0  3 0 0  3 1.5 0  0 0.75 0  1.5 1.5 0  0 0.375 0  0.75 1.5 0  2.25 1.5 0  3 0.75 0  1.216228490499689 0.8069757125887627 0  1.965682393638027 0.8065702515463131 0  0.6025408912810675 0.8974591087189325 0  2.494676348647751 0.9946763486477508 0  2.356709259621435 0.5447946099875809 0  0.8599642199210003 0.5226206461323684 0  0.4216394361293908 0.4974105777134379 0  0.375 1.5 0  0 1.125 0  1.875 1.5 0  1.591091407334617 1.058091082812092 0  1.125 1.5 0  1.590810830624645 0.5394732912049653 0  0.9375 1.13479915923725 0  3 0.375 0  3 1.125 0  2.625 1.5 0  1.995245765771775 0.4277948434396763 0  2.145880954246818 1.137688199332401 0  1.227783477957362 0.427141979786574 0  2.705436295205127 0.5625 0  1.268702849688826 1.133996222613609 0  0.3526676910824388 1.147332308917561 0  0.3097907151415997 0.7889144057821572 0  0.903221947180751 0.828141240074398 0  0.6461527570085278 1.190944174645022 0  2.258488242757536 0.8210127920483788 0  2.400058919161888 1.260760484185309 0  2.778889354513028 0.9375 0  2.725079155390203 1.225079155390203 0  1.853608154101008 1.201589046866999 0  2.540576981905353 0.3370046821869876 0  0.7811555507088518 0.2732832036972447 0  1.493222576519009 0.798835058995101 0  1.747409300790817 0.3184283662481822 0  1.459899526511598 0.3067772450698331 0  0.1875 1.5 0  0 0.5625 0  2.521594883841638 0.7403247928378012 0  0.2438476629309629 0.32244155773108 0  3 0.1875 0  2.776470677837637 0.28125 0  2.121241022911138 0.6281701698960991 0  1.728545483402697 0.8581016441191361 0  1.012422318322288 0.3271268474523591 0  2.305755967143385 0.3144626442661202 0  1.30662028105542 0 0  1.6875 1.5 0  1.8265892939935 0.6051726401583923 0  0.5458598773451642 0.2962606377138959 0  0 0.9375 0  1.349377516922966 0.6209336375388498 0  1.079656249611334 0.612728400373996 0  0.7151087041654347 0.6989529576230681 0  2.0625 1.5 0  1.59375 1.288981971791887 0  2.085107439753329 0.2191742438537923 0  0.6402689932842839 0.4934943541428904 0  1.228474271256239 0.2064231070567615 0  1.3125 1.5 0  1.06968030723948 0.9647793670181679 0  0.2113350105157037 0.5332932754427466 0  0 1.3125 0  0.5051540211699285 0.7110632261327643 0  0.4775171365050886 1.316467280173536 0  1.967112413780365 1.020384154410382 0  0.8191736043349165 1.304781661824189 0  1.103455205015878 1.280328263155604 0  0.7649318329201844 1.023310716596371 0  0.2120544860962804 0.9823800432730223 0  1.359100570345391 0.9517705003379791 0  0.1711043107784345 1.21875 0  3 1.3125 0  2.8125 1.5 0  2.714178691455841 0.7554813872281284 0  2.217815962767571 1.313132398873298 0  2.020480176543968 1.307095379623413 0  2.29875620117699 1.013690599387144 0  0.3848285295772316 0.1937040883803935 0  0.9375 1.5 0  3 0.9375 0  2.4375 1.5 0  3 0.5625 0  0 0.1875 0  0.5625 1.5 0  2.835 0 0  1.386383673099448 1.305536509588035 0  1.773513842966063 1.0362399691084 0  2.179843036592861 0.4515211056338026 0  0.4134910794700652 0.9582824971065591 0  2.107214813096467 0.9125353945687058 0  1.916698009609654 0.2702971158297667 0  2.533006985360663 0.5155509623987015 0  2.838574938309606 0.4465309273225452 0  0.3016597101560133 1.338635596991575 0  1.641573393474498 0.7066136805426366 0  2.855238878880983 0.65625 0  1.398074618385877 0.1459865472102536 0  1.756539173374812 1.342993235461221 0  2.434593137832078 0.2067018044975929 0  1.434366740555482 0.4743139981449843 0  1.440742946818836 1.142108619191562 0  0.549043549720087 1.055391704395 0  2.571565919072277 1.32487216700893 0  2.535776521770127 1.159155922815097 0  2.652193336606067 1.04269083214613 0  0.660031172970541 1.35825582857438 0  2.607645482283307 0.8780318994093907 0  1.09590027081365 1.121554905778777 0  0.1474979543625655 0.8283466240195498 0  1.056776372361757 0.7739494406659941 0  0.3647560414155882 0.6427945145874604 0  1.699724067482516 1.17405657891935 0  0.913786173488833 0.9822051271795349 0  0.9283491691592597 0.66876089182342 0  0.7498959802087029 0.8498501951910959 0  0.3951228082283652 0.3465404522808934 0  1.23887612906836 1.360760366473919 0  0.1206420558503055 0.65625 0  1.735537276557186 0.4760109437618505 0  1.799297742536812 0.1791526413061006 0  1.970987958006469 0.6541756362249113 0  1.080810552147559 0.461742062484039 0  2.268149337929528 0.6688757993926466 0  2.413602460817152 0.8574959373397593 0  2.833998248858927 1.096635576389 0  2.71875 1.378451438260757 0  2.001906612723158 1.162230131308666 0  2.859452984352005 0.8083820929207302 0  2.688478120768856 0.4086214703657035 0  1.214106348747711 0.9519545202622776 0  2.850368184690094 1.307066142740315 0  1.864893983840636 0.9141560734025058 0  1.60661446108863 0.2395589708587393 0  1.61163060570479 0.3901968276506504 0  2.771867619212225 0.1335769833684914 0  0.7969119039620236 1.163109784140262 0  0.9599416701963486 1.276596315583475 0  2.103624150445193 0.7698297553089299 0  2.279721363034605 1.185280797873663 0  2.34375 1.392122382816539 0  0.1382307077648764 1.361769292235123 0  0.1426478344893104 0.2175212356047023 0  2.406413880432258 1.104106228251116 0  2.414971181397263 0.4111042519521358 0  2.637277274673136 0.2192348292007474 0  1.353600469573883 0.7646239317376279 0  1.494012125944227 0.651091825511382 0  1.590274899157226 0.9102986199774393 0  1.028633500752755 1.396325660524358 0  1.829615743479497 0.7518128394998403 0  1.861059000344659 0.3963812297683985 0  0.510900777690535 1.185277566959035 0  1.213080286311768 0.6640546084318578 0  0.79 0 0  0.8167897395818556 0.1376517357725223 0  0.9319739747594649 0.2144569310211157 0  1.889188139713804 1.330032757791382 0  0.655714683266079 0.2049689967103183 0  2.09162028105542 0 0  0.1359367774292784 0.4137345801986589 0  0.4380798275211911 0.8267965724704243 0  2.40400705830434 0.6721965963037969 0  0.3027633520173528 0.4394586980387968 0  0.8782788855287165 0.379708545377904 0  0.7595213470930909 0.4371189613680841 0  1.317967779309324 0.3170637160852436 0  0.6053759621699666 0.6225641226781395 0  0.6530309552265516 0.3661735489900947 0  2.594089294631991 0.631328821944253 0  0 1.03125 0  0.1304283746114646 1.089970844689444 0  0.4071107582724932 0 0  1.469526282978338 1.017083854458662 0  1.088959023533499 0.2104112015424126 0  1.161808378403757 0.3165749773273478 0  2.172966779463329 0.3188379172988492 0  2.216343768168092 0.1920401700474863 0  3 0.09375 0  1.905024675365066 0.5108806275986008 0  1.702014103004408 0.5963171944847371 0  0.2428042557945101 0.6514309613450368 0  3 1.40625 0  0.262372466757009 0.191725613649506 0  2.116791485436391 1.387145016777417 0  1.96875 1.5 0  2.885528053432104 0.3345800153572822 0  2.875601419873791 0.2042517854891826 0  2.298911783255236 0.4400662366556407 0  2.459247322083259 1.363881377923602 0  0.9735587139454543 0.5585353431007029 0  1.176315140569268 0.5379697839544898 0  2.0296370010214 0.5459700999805513 0  0.4987416453488727 0.4060939323248423 0  0.5397511702990104 0.1771676763212877 0  3 1.21875 0  2.238710633113112 0.5542203056099733 0  1.19831014052771 0 0  1.583962270593198 1.173633921912192 0  1.650563144166832 1.390075718520202 0  1.496025571730155 1.371899864460592 0  3 1.03125 0  2.887481932992674 0.9890041589451042 0  0.247836885460272 1.094286258989912 0  0.4719220056590702 0.6009044603312741 0  1.97565550452845 0.1615660574331665 0  2.131135530378305 0.1108580974478677 0  1.318642333542132 0.5051755928544708 0  1.217460132329928 1.242599824876711 0  1.511891312109549 0.1714963794002952 0  2.174601400318987 1.01685942781215 0  0.9082882406313817 1.384236564302014 0  0.6140422604397168 0.7728109899968187 0  0.8289359680247524 0.7347587321432018 0  0.741509926624258 0.5729763888559004 0  2.058356323822746 0.3313153147701495 0  0.4534336320756143 0.1034622594748756 0  1.40625 1.5 0  1.689084537897351 0.9628079283127213 0  1.156270839633873 0.1228556218721798 0  1.29033806179015 0.1118395069726669 0  1.460859151915469 0.9057320169622244 0  2.326558662668462 0.1831424028173474 0  0.9693052477371982 0.4460054238200853 0  0.6625304018229865 1.076650755704414 0  1.41493042158313 0 0  0.4485426513928407 1.096421738127594 0  0.2454589766548061 0.8778352103982039 0  0.1115239912906509 0.9339683416032414 0  1.134782462834443 0.8782884736059876 0  0.9999448991609674 1.04695529392896 0  0.9835215815673453 0.9000292002687431 0  2.53125 1.5 0  0.3175564878698739 1.010319294269645 0  1.971944763694389 0.9134401013848152 0  2.06
[...]
<PointData  Tensors="f_910"> 
<DataArray  type="Float64"  Name="f_910"  NumberOfComponents="9" format="ascii">-5.0600578760696431e+00 -7.2696414998527137e-01 0.0000000000000000e+00 -7.2696414998527137e-01 -1.8751960538210351e+01 0.0000000000000000e+00 0.0000000000000000e+00 0.0000000000000000e+00 0.0000000000000000e+00  3.2912675637882927e+01 2.6638933891802576e+00 0.0000000000000000e+00 2.6638933891802576e+00 3.3776829477232120e+01 0.0000000000000000e+00 0.0000000000000000e+00 0.0000000000000000e+00 0.0000000000000000e+00  4.1333542068162934e+01 -8.2955904191087857e+00 0.0000000000000000e+00 -8.2955904191087857e+00 2.1857382341951205e+01 0.0000000000000000e+00 0.0000000000000000e+00 0.0000000000000000e+00 0.0000000000000000e+00  8.1761958106719590e+01 2.1164496986430976e+01 0.0000000000000000e+00 2.1164496986430976e+01 -3.0306479807717487e+01 0.0000000000000000e+00 0.0000000000000000e+00 0.0000000000000000e+00 0.0000000000000000e+00  8.5955589854061017e+01 1.2712742224272446e+01 0.0000000000000000e+00 1.2712742224272446e+01 -3.7702196747113206e+01 0.0000000000000000e+00 0.0000000000000000e+00 0.0000000000000000e+00 0.0000000000000000e+00  3.4149793474518773e+01 4.8525382233501290e+01 0.0000000000000000e+00 4.8525382233501290e+01 2.8128971362550480e+01 0.0000000000000000e+00 0.0000000000000000e+00 0.0000000000000000e+00 0.0000000000000000e+00  6.0653609968043554e+01 4.5618782036525957e+01 0.0000000000000000e+00 4.5618782036525957e+01 -6.6782761527777526e+00 0.0000000000000000e+00 0.0000000000000000e+00 0.0000000000000000e+00 0.0000000000000000e+00  1.9080689029174753e+01 2.4009702873534053e+01 0.0000000000000000e+00 2.4009702873534053e+01 3.5206495465160600e+01 0.0000000000000000e+00 0.0000000000000000e+00 0.0000000000000000e+00 0.0000000000000000e+00  2.1835767214501164e+01 -4.0056756019233450e+00 0.0000000000000000e+00 -4.0056756019233450e+00 3.8988917858746966e+01 0.0000000000000000e+00 0.0000000000000000e+00 0.0000000000000000e+00 0.0000000000000000e+00  2.2752541656946619e+01 -3.8207903302030949e-01 0.0000000000000000e+00 -3.8207903302030949e-01 2.9410282795290374e+01 0.0000000000000000e+00 0.0000000000000000e+00 0.0000000000000000e+00 0.0000000000000000e+00  -5.1359092033551022e+01 -3.5896878466535867e+01 0.0000000000000000e+00 -3.5896878466535867e+01 8.3846207768902303e+01 0.0000000000000000e+00 0.0000000000000000e+00 0.0000000000000000e+00 0.0000000000000000e+00  -5.6639764568209216e+01 1.8041393002402202e+01 0.0000000000000000e+00 1.8041393002402202e+01 1.0540687524474512e+02 0.0000000000000000e+00 0.0000000000000000e+00 0.0000000000000000e+00 0.0000000000000000e+00  -5.2849204313504892e+00 -8.3564522742793361e+00 0.0000000000000000e+00 -8.3564522742793361e+00 7.5774010465943675e+01 0.0000000000000000e+00 0.0000000000000000e+00 0.0000000000000000e+00 0.0000000000000000e+00  -6.8662286975034604e+01 1.0590809051240214e+01 0.0000000000000000e+00 1.0590809051240214e+01 1.1077479811106774e+02 0.0000000000000000e+00 0.0000000000000000e+00 0.0000000000000000e+00 0.0000000000000000e+00  3.0556059676246644e+01 8.3459711472596041e+00 0.0000000000000000e+00 8.3459711472596041e+00 3.0020845253586710e+01 0.0000000000000000e+00 0.0000000000000000e+00 0.0000000000000000e+00 0.0000000000000000e+00  1.6815675995466080e+01 -1.0022917433870809e+01 0.0000000000000000e+00 -1.0022917433870809e+01 4.5009418154614757e+01 0.0000000000000000e+00 0.0000000000000000e+00 0.0000000000000000e+00 0.0000000000000000e+00  -1.4885150743770724e+01 -3.3083402536310018e+01 0.0000000000000000e+00 -3.3083402536310018e+01 6.0645195428340784e+01 0.0000000000000000e+00 0.0000000000000000e+00 0.0000000000000000e+00 0.0000000000000000e+00  2.4392813389728250e+01 -3.9289577261920712e+01 0.0000000000000000e+00 -3.9289577261920712e+01 1.6348726853614572e+01 0.0000000000000000e+00 0.0000000000000000e+00 0.0000000000000000e+00 0.0000000000000000e+00  3.8599430125660106e+01 -5.3631550738826199e+01 0.0000000000000000e+00 -5.3631550738826199e+01 1.9406169126351163e+00 0.0000000000000000e+00 0.0000000000000000e+00 0.0000000000000000e+00 0.0000000000000000e+00  7.2415291691987036e+01 5.2998879383853250e+00 0.0000000000000000e+00 5.2998879383853250e+00 -2.9118441519336134e+01 0.0000000000000000e+00 0.0000000000000000e+00 0.0000000000000000e+00 0.0000000000000000e+00  1.1359284476096765e+02 -3.7828107729457642e+01 0.0000000000000000e+00 -3.7828107729457642e+01 -7.6111178416663975e+01 0.0000000000000000e+00 0.0000000000000000e+00 0.0000000000000000e+00 0.0000000000000000e+00  2.9624306402357103e+01 2.3612883498946036e+00 0.0000000000000000e+00 2.3612883498946036e+00 1.6539628304864582e+01 0.0000000000000000e+00 0.0000000000000000e+00 0.0000000000000000e+00 0.0000000000000000e+00  1.4040376910224925e+01 4.8416866644335075e+00 0.0000000000000000e+00 4.8416866644335075e+00 2.8001731649954593e+01 0.0000000000000000e+00 0.0000000000000000e+00 0.0000000000000000e+00 0.0000000000000000e+00  9.6119978874304490e-01 -1.3902570603847783e+01 0.0000000000000000e+00 -1.3902570603847783e+01 4.5339905841385445e+01 0.0000000000000000e+00 0.0000000000000000e+00 0.0000000000000000e+00 0.0000000000000000e+00  2.7333763947439085e+01 -2.6604603942165564e+01 0.0000000000000000e+00 -2.6604603942165564e+01 1.7593026598075724e+01 0.0000000000000000e+00 0.0000000000000000e+00 0.0000000000000000e+00 0.0000000000000000e+00  2.7477757777907566e+01 -5.3492363216343271e+01 0.0000000000000000e+00 -5.3492363216343271e+01 3.7914337902521043e+00 0.0000000000000000e+00 0.0000000000000000e+00 0.0000000000000000e+00 0.0000000000000000e+00  7.2928472999351314e+01 -2.2189893027884075e+01 0.0000000000000000e+00 -2.2189893027884075e+01 -2.7200642024916750e+01 0.0000000000000000e+00 0.0000000000000000e+00 0.0000000000000000e+00 0.0000000000000000e+00  9.5060044992308718e+01 -2.3211418102235235e+01 0.0000000000000000e+00 -2.3211418102235235e+01 -6.6596231725302445e+01 0.0000000000000000e+00 0.0000000000000000e+00 0.0000000000000000e+00 0.0000000000000000e+00  6.3718701068121504e+01 1.4323621826841324e+01 0.0000000000000000e+00 1.4323621826841324e+01 -2.0480404971291563e+01 0.0000000000000000e+00 0.0000000000000000e+00 0.0000000000000000e+00 0.0000000000000000e+00  2.7613857966763241e+01 -7.9625796764495194e-01 0.0000000000000000e+00 -7.9625796764495194e-01 1.0787776087720703e+01 0.0000000000000000e+00 0.0000000000000000e+00 0.0000000000000000e+00 0.0000000000000000e+00  5.0292646453495145e+01 -1.5466173408149173e+01 0.0000000000000000e+00 -1.5466173408149173e+01 -1.1129225263924447e+00 0.0000000000000000e+00 0.0000000000000000e+00 0.0000000000000000e+00 0.0000000000000000e+00  3.4292217594545498e+01 -6.5633102622218857e+01 0.0000000000000000e+00 -6.5633102622218857e+01 9.5202546483340811e+00 0.0000000000000000e+00 0.0000000000000000e+00 0.0000000000000000e+00 0.0000000000000000e+00  5.4022379811726431e+01 -2.2414329663358448e+01 0.0000000000000000e+00 -2.2414329663358448e+01 -2.0367532533706164e+01 0.0000000000000000e+00 0.0000000000000000e+00 0.0000000000000000e+00 0.0000000000000000e+00  4.9830470753404214e+01 8.1334676826854828e+00 0.0000000000000000e+00 8.1334676826854828e+00 -1.2359852734006688e+01 0.0000000000000000e+00 0.0000000000000000e+00 0.0000000000000000e+00 0.0000000000000000e+00  1.2857519806754391e+01 9.5293263283867824e-01 0.0000000000000000e+00 9.5293263283867824e-01 1.3847385449640598e+01 0.0000000000000000e+00 0.0000000000000000e+00 0.0000000000000000e+00 0.0000000000000000e+00  8.4073360682541718e+01 2.7308638230751150e+01 0.0000000000000000e+00 2.7308638230751150e+01 -3.1866573842751301e+01 0.0000000000000000e+00 0.0000000000000000e+00 0.0000000000000000e+00 0.0000000000000000e+00  7.9407323275126103e+01 -8.9157281147325786e+00 0.0000000000000000e+00 -8.9157281147325786e+00 -6.1957985677767255e+01 0.0000000000000000e+00 0.0000000000000000e+00 0.0000000000000000e+00 0.0000000000000000e+00  3.4734602406685930e+01 9.6178947018791980e+00 0.0000000000000000e+00 9.6178947018791980e+00 -6.8099483075381828e+00 0.0000000000000000e+00 0.0000000000000000e+00 0.0000000000000000e+00 0.0000000000000000e+00  1.2212560645520481e+01 2.4013302743576844e+01 0.0000000000000000e+00 2.4013302743576844e+01 1.6807496195615169e+01 0.0000000000000000e+00 0.0000000000000000e+00 0.0000000000000000e+00 0.0000000000000000e+00  -3.0421325732478788e+01 3.2667518372065651e+01 0.0000000000000000e+00 3.2667518372065651e+01 5.5620606777303792e+01 0.0000000000000000e+00 0.0000000000000000e+00 0.0000000000000000e+00 0.0000000000000000e+00  7.7338629663458782e+00 -1.2547220100199195e+00 0.0000000000000000e+00 -1.2547220100199195e+00 2.7852043198509826e+01 0.0000000000000000e+00 0.0000000000000000e+00 0.0000000000000000e+00 0.0000000000000000e+00  1.5649186170403398e+01 -2.3624292492156584e+00 0.0000000000000000e+00 -2.3624292492156584e+00 8.6953108908620322e+00 0.0000000000000000e+00 0.0000000000000000e+00 0.0000000000000000e+00 0.0000000000000000e+00  1.0104352326088591e+02 2.2404570137617537e+01 0.0000000000000000e+00 2.2404570137617537e+01 -5.1807356696271611e+01 0.0000000000000000e+00 0.0000000000000000e+00 0.0000000000000000e+00 0.0000000000000000e+00  9.6328091208972367e+01 -1.8906818214710288e+01 0.0000000000000000e+00 -1.8906818214710288e+01 -7.5418611353006455e+01 0.0000000000000000e+00 0.0000000000000000e+00 0.0000000000000000e+00 0.0000000000000000e+00  4.1969385399425434e+00 -1.1600255828599158e+01 0.0000000000000000e+00 -1.1600255828599158e+01 1.7106132683209246e+01 0.0000000000000000e+00 0.0000000000000000e+00 0.0000000000000000e+00 0.0000000000000000e+00  -5.7362498213881707e+01 2.0890111766040651e+01 0.0000000000000000e+00 2.0890111766040651e+01 8.3244695541428669e+01 0.0000000000000000e+00 0.0000000000000000e+00 0.0000000000000000e+00 0.0000000000000000e+00  7.0263172620405561e+00 -4.2529945371144517e+00 0.0000000000000000e+00 -4.2529945371144517e+00 7.7998967958476815e+00 0.0000000000000000e+00 0.0000000000000000e+00 0.0000000000000000e+00 0.0000000000000000e+00  -2.8583564389997849e+02 1.2528804600390251e+02 0.0000000000000000e+00 1.2528804600390251e+02 -1.7442438308363947e+01 0.0000000000000000e+00 0.0000000000000000e+00 0.0000000000000000e+00 0.0000000000000000e+00  3.5211812174893851e+02 2.1110819331102871e+02 0.0000000000000000e+00 2.1110819331102871e+02 7.6699969283151631e+01 0.0000000000000000e+00 0.0000000000000000e+00 0.0000000000000000e+00 0.0000000000000000e+00  1.2821923426822570e+01 8.5247057485671050e+01 0.0000000000000000e+00 8.5247057485671050e+01 2.0276906534060957e+00 0.0000000000000000e+00 0.0000000000000000e+00 0.0000000000000000e+00 0.0000000000000000e+00  2.8161925180302694e+00 5.7307334993557442e+00 0.0000000000000000e+00 5.7307334993557442e+00 -2.3749752395390029e+01 0.0000000000000000e+00 0.0000000000000000e+00 0.0000000000000000e+00 0.0000000000000000e+00  1.6873894182441507e+01 9.5558357164354490e+01 0.0000000000000000e+00 9.5558357164354490e+01 2.2348960301247597e+01 0.0000000000000000e+00 0.0000000000000000e+00 0.0000000000000000e+00 0.0000000000000000e+00  -2.3325366681897865e+01 1.8909517762247262e+01 0.0000000000000000e+00 1.8909517762247262e+01 2.2063559790556786e+00 0.0000000000000000e+00 0.0000000000000000e+00 0.0000000000000000e+00 0.0000000000000000e+00  -3.0338539245468105e+01 -1.8595978485780812e+01 0.0000000000000000e+00 -1.8595978485780812e+01 -4.3921126329038573e+00 0.0000000000000000e+00 0.0000000000000000e+00 0.0000000000000000e+00 0.0000000000000000e+00  -1.1357293811921698e+01 -1.8216774815716079e+02 0.0000000000000000e+00 -1.8216774815716079e+02 1.1102750429602063e+01 0.0000000000000000e+00 0.0000000000000000e+00 0.0000000000000000e+00 0.0000000000000000e+00  4.0498959305695985e+00 -7.8543089704690443e+00 0.0000000000000000e+00 -7.8543089704690443e+00 3.9598489174253197e+00 0.0000000000000000e+00 0.0000000000000000e+00 0.0000000000000000e+00 0.0000000000000000e+00  1.8910217693591973e+00 7.6653863377994984e+00 0.0000000000000000e+00 7.6653863377995011e+00 1.6434597051474868e+00 0.0000000000000000e+00 0.0000000000000000e+00 0.0000000000000000e+00 0.0000000000000000e+00  3.7005461304117797e+00 -1.3044053020236215e+00 0.0000000000000000e+00 -1.3044053020236215e+00 3.6501279810178628e+00 0.0000000000000000e+00 0.0000000000000000e+00 0.0000000000000000e+00 0.0000000000000000e+00  -2.0999237816923197e+00 -2.0542911792836396e+01 0.0000000000000000e+00 -2.0542911792836396e+01 -2.9658201296441629e+00 0.0000000000000000e+00 0.0000000000000000e+00 0.0000000000000000e+00 0.0000000000000000e+00  4.9934474123285293e+00 1.9149944217623332e+01 0.0000000000000000e+00 1.9149944217623332e+01 5.4960560371474996e+00 0.0000000000000000e+00 0.0000000000000000e+00 0.0000000000000000e+00 0.0000000000000000e+00  1.2228765137979403e+01 1.7453488827350967e+01 0.0000000000000000e+00 1.7453488827350967e+01 1.2164089898267454e+01 0.0000000000000000e+00 0.0000000000000000e+00 0.0000000000000000e+00 0.0000000000000000e+00  1.4530626823052584e+01 -1.3227962237820247e+01 0.0000000000000000e+00 -1.3227962237820247e+01 1.4321289125541682e+01 0.0000000000000000e+00 0.0000000000000000e+00 0.0000000000000000e+00 0.0000000000000000e+00  -7.2476756565877727e+00 -8.1039245104593903e+01 0.0000000000000000e+00 -8.1039245104593903e+01 -1.1049164564747425e+01 0.0000000000000000e+00 0.0000000000000000e+00 0.0000000000000000e+00 0.0000000000000000e+00  -4.2520859759961045e+00 9.2219076157167336e+01 0.0000000000000000e+00 9.2219076157167336e+01 2.6056781613695019e+00 0.0000000000000000e+00 0.0000000000000000e+00 0.0000000000000000e+00 0.0000000000000000e+00  -2.6555678572348853e+01 -9.1134762270425782e+01 0.0000000000000000e+00 -9.1134762270425782e+01 -9.3826080952480453e+00 0.0000000000000000e+00 0.0000000000000000e+00 0.0000000000000000e+00 0.0000000000000000e+00  -2.9747106175652007e+00 -2.1837480737407720e+01 0.0000000000000000e+00 -2.1837480737407720e+01 -3.3328024904250739e+00 0.0000000000000000e+00 0.0000000000000000e+00 0.0000000000000000e+00 0.0000000000000000e+00  -2.6647819461507918e+01 9.9980823502946038e+01 0.0000000000000000e+00 9.9980823502946038e+01 -1.1710699725253559e+01 0.0000000000000000e+00 0.0000000000000000e+00 0.0000000000000000e+00 0.0000000000000000e+00  9.0075376733590478e+00 -2.1620181711288510e+01 0.0000000000000000e+00 -2.1620181711288510e+01 9.2897316879993976e+00 0.0000000000000000e+00 0.0000000000000000e+00 0.0000000000000000e+00 0.0000000000000000e+00  -3.2034046078292553e+00 -1.6518538427612707e+01 0.0000000000000000e+00 -1.6518538427612707e+01 -3.3886699465609906e+00 0.0000000000000000e+00 0.0000000000000000e+00 0.0000000000000000e+00 0.0000000000000000e+00  9.9464161537230069e+01 -1.1345571096413171e+02 0.0000000000000000e+00 -1.1345571096413171e+02 -4.5934034647000288e-01 0.0000000000000000e+00 0.0000000000000000e+00 0.0000000000000000e+00 0.0000000000000000e+00  -1.8719688665283255e+02 -2.9209465826235413e+02 0.0000000000000000e+00 -2.9209465826235413e+02 -1.5133177334582312e+01 0.0000000000000000e+00 0.0000000000000000e+00 0.0000000000000000e+00 0.0000000000000000e+00  -1.2100873254970155e+01 4.1074971201069246e+01 0.0000000000000000e+00 4.1074971201069246e+01 -1.3964890119632427e+01 0.0000000000000000e+00 0.0000000000000000e+00 0.0000000000000000e+00 0.0000000000000000e+00  9.5232712621672722e+00 1.9769361517214655e+01 0.0000000000000000e+00 1.9769361517214655e+01 1.0051283776328146e+01 0.0000000000000000e+00 0.0000000000000000e+00 0.0000000000000000e+00 0.0000000000000000e+00  -4.8524644407890207e+00 -1.7906879234260824e+01 0.0000000000000000e+00 -1.7906879234260824e+01 -6.3930227816897176e+00 0.0000000000000000e+00 0.0000000000000000e+00 0.0000000000000000e+00 0.0000000000000000e+00  1.3236190396575292e+01 -1.2693427536491958e+01 0.0000000000000000e+00 -1.2693427536491958e+01 1.3227459598398474e+01 0.0000000000000000e+00 0.0000000000000000e+00 0.0000000000000000e+00 0.0000000000000000e+00  1.7320586805806424e+00 -1.3459591103362600e+00 0.0000000000000000e+00 -1.3459591103362600e+00 3.0021752534290922e+00 0.0000000000000000e+00 0.0000000000000000e+00 0.0000000000000000e+00 0.0000000000000000e+00  -4.0039376083878011e+00 -2.3344743025798756e+01 0.0000000000000000e+00 -2.3344743025798756e+01 -4.1192995712639098e+00 0.0000000000000000e+00 0.0000000000000000e+00 0.0000000000000000e+00 0.0000000000000000e+00  -1.9560473486082246e+00 -2.0821100042392576e+01 0.0000000000000000e+00 -2.0821100042392573e+01 -1.9254868581060576e+00 0.0000000000000000e+00 0.0000000000000000e+00 0.0000000000000000e+00 0.0000000000000000e+00  7.4462386288965217e+00 -4.6552745441554668e+00 0.0000000000000000e+00 -4.6552745441554668e+00 7.2674745282318538e+00 0.0000000000000000e+00 0.0000000000000000e+00 0.0000000000000000e+00 0.0000000000000000e+00  4.5234642050056362e+00 -1.2952541825151906e+00 0.0000000000000000e+00 -1.2952541825151906e+00 4.3605476585344478e+00 0.0000000000000000e+00 0.0000000000000000e+00 0.0000000000000000e+00 0.0000000000000000e+00  -3.7994018461627941e+00 -1.9213676406214859e+01 0.0000000000000000e+00 -1.9213676406214859e+01 -3.8288594842093220e+00 0.0000000000000000e+00 0.0000000000000000e+00 0.0000000000000000e+00 0.0000000000000000e+00  7.6866520880153266e-01 4.5773703065991898e+00 0.0000000000000000e+00 4.5773703065991898e+00 2.4324171262983965e-01 0.0000000000000000e+00 0.0000000000000000e+00 0.0000000000000000e+00 0.0000000000000000e+00  -5.6711871454121612e+00 2.4835823579982113e+00 0.0000000000000000e+00 2.4835823579982113e+00 -9.4191659553354317e+00 0.0000000000000000e+00 0.0000000000000000e+00 0.0000000000000000e+00 0.0000000000000000e+00  -1.2738157056440735e+00 -2.0367072058029898e+01 0.0000000000000000e+00 -2.0367072058029898e+01 -6.4764233602615262e-01 0.0000000000000000e+00 0.0000000000000000e+00 0.0000000000000000e+00 0.0000000000000000e+00  -2.7654077920979470e+00 -6.1942185021157821e+00 0.0000000000000000e+00 -6.1942185021157821e+00 -6.6867244894143312e+00 0.0000000000000000e+00 0.0000000000000000e+00 0.0000000000000000e+00 0.0000000000000000e+00  -6.4703348918366110e+00 -2.0472307941117453e+01 0.0000000000000000e+00 -2.0472307941117453e+01 -7.5963113502851680e+00 0.0000000000000000e+00 0.0000000000000000e+00 0.0000000000000000e+00 0.0000000000000000e+00  5.9788040152768298e+00 -7.2148921675468891e-01 0.0000000000000000e+00 -7.2148921675468891e-01 8.7600172472658020e+00 0.0000000000000000e+00 0.0000000000000000e+00 0.0000000000000000e+00 0.0000000000000000e+00  1.8768138421771237e+01 1.3799735322884828e+01 0.0000000000000000e+00 1.3799735322884827e+01 1.8937350172049815e+01 0.0000000000000000e+00 0.0000000000000000e+00 0.0000000000000000e+00 0.0000000000000000e+00  3.3124936281479989e+00 3.5128543845979006e+00 0.0000000000000000e+00 3.5128543845979006e+00 3.2019112260728209e+00 0.0000000000000000e+00 0.0000000000000000e+00 0.0000000000000000e+00 0.0000000000000000e+00  1.3222385372494310e+01 2.0825489424903964e+01 0.0000000000000000e+00 2.0825489424903964e+01 1.4044462652975465e+01 0.0000000000000000e+00 0.0000000000000000e+00 0.0000000000000000e+00 0.0000000000000000e+00  1.4831273082449737e+01 1.7457404810205780e+01 0.0000000000000000e+00 1.7457404810205780e+01 1.5826196882153956e+01 0.0000000000000000e+00 0.0000000000000000e+00 0.0000000000000000e+00 0.0000000000000000e+00  -2.9307337019636794e+01 6.9086826349790101e+01 0.0000000000000000e+00 6.9086826349790101e+01 4.4931348304738155e+00 0.0000000000000000e+00 0.0000000000000000e+00 0.0000000000000000e+00 0.0000000000000000e+00  1.3674412113071462e+01 9.4660262524605514e+01 0.0000000000000000e+00 9.4660262524605514e+01 1.5573149558959519e+01 0.0000000000000000e+00 0.0000000000000000e+00 0.0000000000000000e+00 0.0000000000000000e+00  1.1244164812067168e+00 -1.1599925991517377e+01 0.0000000000000000e+00 -1.1599925991517377e+01 1.4516303703452120e+00 0.0000000000000000e+00 0.0000000000000000e+00 0.0000000000000000e+00 0.0000000000000000e+00  1.9368337383980307e+01 2.1365503012528144e+01 0.0000000000000000e+00 2.1365503012528144e+01 1.9693638296262328e+01 0.0000000000000000e+00 0.0000000000000000e+00 0.0000