<?xml version="1.0"?>
<VTKFile type="UnstructuredGrid"  version="0.1"  >
<UnstructuredGrid>
<Piece  NumberOfPoints="5185" NumberOfCells="10070">
<Points>
<DataArray  type="Float64"  NumberOfComponents="3"  format="ascii">0 1.5 0  0 0 0  0.1232405621108402 0 0  0.1232405621108402 0.02253860454731437 0  0.1476111412843772 0.06045996594834066 0  0.1886148129381372 0.07918571535047463 0  0.2332332010401509 0.07277055962836147 0  0.2673002826264945 0.0432512653964478 0  0.28 0 0  0.5342215165449864 0 0  0.5342215165449864 0.02394141003279682 0  0.5649999999999999 0.06062177826491071 0  0.6121553724366851 0.06893654271085457 0  0.6536231110183285 0.04499513267805775 0  0.6699999999999999 0 0  0.91 0 0  0.9220577136594005 0.04499999999999999 0  0.9550000000000001 0.07794228634059948 0  1 0.09 0  1.045 0.07794228634059946 0  1.077942286340599 0.04499999999999999 0  1.09 0 0  1.52324056211084 0 0  1.52324056211084 0.02253860454731437 0  1.547611141284377 0.06045996594834066 0  1.588614812938137 0.07918571535047463 0  1.633233201040151 0.07277055962836147 0  1.667300282626495 0.0432512653964478 0  1.68 0 0  1.84 0 0  1.857573593128807 0.04242640687119285 0  1.9 0.06 0  1.942426406871193 0.04242640687119285 0  1.96 0 0  2.22324056211084 0 0  2.22324056211084 0.02253860454731437 0  2.247611141284377 0.06045996594834066 0  2.288614812938137 0.07918571535047463 0  2.333233201040151 0.07277055962836147 0  2.367300282626494 0.0432512653964478 0  2.38 0 0  2.534221516544986 0 0  2.534221516544986 0.02394141003279682 0  2.565 0.06062177826491071 0  2.612155372436685 0.06893654271085457 0  2.653623111018328 0.04499513267805775 0  2.67 0 0  3 0 0  3 1.5 0  0 0.75 0  1.5 1.5 0  0 0.375 0  0.75 1.5 0  2.25 1.5 0  3 0.75 0  1.216228490499689 0.8069757125887627 0  1.965682393638027 0.8065702515463131 0  0.6025408912810675 0.8974591087189325 0  2.494676348647751 0.9946763486477508 0  2.356709259621435 0.5447946099875809 0  0.8599642199210003 0.5226206461323684 0  0.4216394361293908 0.4974105777134379 0  0.375 1.5 0  0 1.125 0  1.875 1.5 0  1.591091407334617 1.058091082812092 0  1.125 1.5 0  1.590810830624645 0.5394732912049653 0  0.9375 1.13479915923725 0  3 0.375 0  3 1.125 0  2.625 1.5 0  1.995245765771775 0.4277948434396763 0  2.145880954246818 1.137688199332401 0  1.227783477957362 0.427141979786574 0  2.705436295205127 0.5625 0  1.268702849688826 1.133996222613609 0  0.3526676910824388 1.147332308917561 0  0.3097907151415997 0.7889144057821572 0  0.903221947180751 0.828141240074398 0  0.6461527570085278 1.190944174645022 0  2.258488242757536 0.8210127920483788 0  2.400058919161888 1.260760484185309 0  2.778889354513028 0.9375 0  2.725079155390203 1.225079155390203 0  1.853608154101008 1.201589046866999 0  2.540576981905353 0.3370046821869876 0  0.7811555507088518 0.2732832036972447 0  1.493222576519009 0.798835058995101 0  1.747409300790817 0.3184283662481822 0  1.459899526511598 0.3067772450698331 0  0.1875 1.5 0  0 0.5625 0  2.521594883841638 0.7403247928378012 0  0.2438476629309629 0.32244155773108 0  3 0.1875 0  2.776470677837637 0.28125 0  2.121241022911138 0.6281701698960991 0  1.728545483402697 0.8581016441191361 0  1.012422318322288 0.3271268474523591 0  2.305755967143385 0.3144626442661202 0  1.30662028105542 0 0  1.6875 1.5 0  1.8265892939935 0.6051726401583923 0  0.5458598773451642 0.2962606377138959 0  0 0.9375 0  1.349377516922966 0.6209336375388498 0  1.079656249611334 0.612728400373996 0  0.7151087041654347 0.6989529576230681 0  2.0625 1.5 0  1.59375 1.288981971791887 0  2.085107439753329 0.2191742438537923 0  0.6402689932842839 0.4934943541428904 0  1.228474271256239 0.2064231070567615 0  1.3125 1.5 0  1.06968030723948 0.9647793670181679 0  0.2113350105157037 0.5332932754427466 0  0 1.3125 0  0.5051540211699285 0.7110632261327643 0  0.4775171365050886 1.316467280173536 0  1.967112413780365 1.020384154410382 0  0.8191736043349165 1.304781661824189 0  1.103455205015878 1.280328263155604 0  0.7649318329201844 1.023310716596371 0  0.2120544860962804 0.9823800432730223 0  1.359100570345391 0.9517705003379791 0  0.1711043107784345 1.21875 0  3 1.3125 0  2.8125 1.5 0  2.714178691455841 0.7554813872281284 0  2.217815962767571 1.313132398873298 0  2.020480176543968 1.307095379623413 0  2.29875620117699 1.013690599387144 0  0.3848285295772316 0.1937040883803935 0  0.9375 1.5 0  3 0.9375 0  2.4375 1.5 0  3 0.5625 0  0 0.1875 0  0.5625 1.5 0  2.835 0 0  1.386383673099448 1.305536509588035 0  1.773513842966063 1.0362399691084 0  2.179843036592861 0.4515211056338026 0  0.4134910794700652 0.9582824971065591 0  2.107214813096467 0.9125353945687058 0  1.916698009609654 0.2702971158297667 0  2.533006985360663 0.5155509623987015 0  2.838574938309606 0.4465309273225452 0  0.3016597101560133 1.338635596991575 0  1.641573393474498 0.7066136805426366 0  2.855238878880983 0.65625 0  1.398074618385877 0.1459865472102536 0  1.756539173374812 1.342993235461221 0  2.434593137832078 0.2067018044975929 0  1.434366740555482 0.4743139981449843 0  1.440742946818836 1.142108619191562 0  0.549043549720087 1.055391704395 0  2.571565919072277 1.32487216700893 0  2.535776521770127 1.159155922815097 0  2.652193336606067 1.04269083214613 0  0.660031172970541 1.35825582857438 0  2.607645482283307 0.8780318994093907 0  1.09590027081365 1.121554905778777 0  0.1474979543625655 0.8283466240195498 0  1.056776372361757 0.7739494406659941 0  0.3647560414155882 0.6427945145874604 0  1.699724067482516 1.17405657891935 0  0.913786173488833 0.9822051271795349 0  0.9283491691592597 0.66876089182342 0  0.7498959802087029 0.8498501951910959 0  0.3951228082283652 0.3465404522808934 0  1.23887612906836 1.360760366473919 0  0.1206420558503055 0.65625 0  1.735537276557186 0.4760109437618505 0  1.799297742536812 0.1791526413061006 0  1.970987958006469 0.6541756362249113 0  1.080810552147559 0.461742062484039 0  2.268149337929528 0.6688757993926466 0  2.413602460817152 0.8574959373397593 0  2.833998248858927 1.096635576389 0  2.71875 1.378451438260757 0  2.001906612723158 1.162230131308666 0  2.859452984352005 0.8083820929207302 0  2.688478120768856 0.4086214703657035 0  1.214106348747711 0.9519545202622776 0  2.850368184690094 1.307066142740315 0  1.864893983840636 0.9141560734025058 0  1.60661446108863 0.2395589708587393 0  1.61163060570479 0.3901968276506504 0  2.771867619212225 0.1335769833684914 0  0.7969119039620236 1.163109784140262 0  0.9599416701963486 1.276596315583475 0  2.103624150445193 0.7698297553089299 0  2.279721363034605 1.185280797873663 0  2.34375 1.392122382816539 0  0.1382307077648764 1.361769292235123 0  0.1426478344893104 0.2175212356047023 0  2.406413880432258 1.104106228251116 0  2.414971181397263 0.4111042519521358 0  2.637277274673136 0.2192348292007474 0  1.353600469573883 0.7646239317376279 0  1.494012125944227 0.651091825511382 0  1.590274899157226 0.9102986199774393 0  1.028633500752755 1.396325660524358 0  1.829615743479497 0.7518128394998403 0  1.861059000344659 0.3963812297683985 0  0.510900777690535 1.185277566959035 0  1.213080286311768 0.6640546084318578 0  0.79 0 0  0.8167897395818556 0.1376517357725223 0  0.9319739747594649 0.2144569310211157 0  1.889188139713804 1.330032757791382 0  0.655714683266079 0.2049689967103183 0  2.09162028105542 0 0  0.1359367774292784 0.4137345801986589 0  0.4380798275211911 0.8267965724704243 0  2.40400705830434 0.6721965963037969 0  0.3027633520173528 0.4394586980387968 0  0.8782788855287165 0.379708545377904 0  0.7595213470930909 0.4371189613680841 0  1.317967779309324 0.3170637160852436 0  0.6053759621699666 0.6225641226781395 0  0.6530309552265516 0.3661735489900947 0  2.594089294631991 0.631328821944253 0  0 1.03125 0  0.1304283746114646 1.089970844689444 0  0.4071107582724932 0 0  1.469526282978338 1.017083854458662 0  1.088959023533499 0.2104112015424126 0  1.161808378403757 0.3165749773273478 0  2.172966779463329 0.3188379172988492 0  2.216343768168092 0.1920401700474863 0  3 0.09375 0  1.905024675365066 0.5108806275986008 0  1.702014103004408 0.5963171944847371 0  0.2428042557945101 0.6514309613450368 0  3 1.40625 0  0.262372466757009 0.191725613649506 0  2.116791485436391 1.387145016777417 0  1.96875 1.5 0  2.885528053432104 0.3345800153572822 0  2.875601419873791 0.2042517854891826 0  2.298911783255236 0.4400662366556407 0  2.459247322083259 1.363881377923602 0  0.9735587139454543 0.5585353431007029 0  1.176315140569268 0.5379697839544898 0  2.0296370010214 0.5459700999805513 0  0.4987416453488727 0.4060939323248423 0  0.5397511702990104 0.1771676763212877 0  3 1.21875 0  2.238710633113112 0.5542203056099733 0  1.19831014052771 0 0  1.583962270593198 1.173633921912192 0  1.650563144166832 1.390075718520202 0  1.496025571730155 1.371899864460592 0  3 1.03125 0  2.887481932992674 0.9890041589451042 0  0.247836885460272 1.094286258989912 0  0.4719220056590702 0.6009044603312741 0  1.97565550452845 0.1615660574331665 0  2.131135530378305 0.1108580974478677 0  1.318642333542132 0.5051755928544708 0  1.217460132329928 1.242599824876711 0  1.511891312109549 0.1714963794002952 0  2.174601400318987 1.01685942781215 0  0.9082882406313817 1.384236564302014 0  0.6140422604397168 0.7728109899968187 0  0.8289359680247524 0.7347587321432018 0  0.741509926624258 0.5729763888559004 0  2.058356323822746 0.3313153147701495 0  0.4534336320756143 0.1034622594748756 0  1.40625 1.5 0  1.689084537897351 0.9628079283127213 0  1.156270839633873 0.1228556218721798 0  1.29033806179015 0.1118395069726669 0  1.460859151915469 0.9057320169622244 0  2.326558662668462 0.1831424028173474 0  0.9693052477371982 0.4460054238200853 0  0.6625304018229865 1.076650755704414 0  1.41493042158313 0 0  0.4485426513928407 1.096421738127594 0  0.2454589766548061 0.8778352103982039 0  0.1115239912906509 0.9339683416032414 0  1.134782462834443 0.8782884736059876 0  0.9999448991609674 1.04695529392896 0  0.9835215815673453 0.9000292002687431 0  2.53125 1.5 0  0.3175564878698739 1.010319294269645 0  1.971944763694389 0.9134401013848152 0  2.06
[...]
<PointData  Tensors="f_1404"> 
<DataArray  type="Float64"  Name="f_1404"  NumberOfComponents="9" format="ascii">-9.5573922685232171e-01 -4.1310803954435018e+00 0.0000000000000000e+00 -4.1310803954435018e+00 -1.9720656946694660e+01 0.0000000000000000e+00 0.0000000000000000e+00 0.0000000000000000e+00 0.0000000000000000e+00  3.1729014943860136e+01 4.8447772610683302e+00 0.0000000000000000e+00 4.8447772610683302e+00 3.7642463410380074e+01 0.0000000000000000e+00 0.0000000000000000e+00 0.0000000000000000e+00 0.0000000000000000e+00  5.5447254747411108e+01 -1.3355392110849618e+01 0.0000000000000000e+00 -1.3355392110849618e+01 6.8575385955735362e+00 0.0000000000000000e+00 0.0000000000000000e+00 0.0000000000000000e+00 0.0000000000000000e+00  9.4761904992342679e+01 1.7546334387478446e+01 0.0000000000000000e+00 1.7546334387478446e+01 -4.8864371179104509e+01 0.0000000000000000e+00 0.0000000000000000e+00 0.0000000000000000e+00 0.0000000000000000e+00  1.0853564913505473e+02 5.4646271674282136e+00 0.0000000000000000e+00 5.4646271674282136e+00 -7.0906948452341652e+01 0.0000000000000000e+00 0.0000000000000000e+00 0.0000000000000000e+00 0.0000000000000000e+00  3.4688647548692927e+01 6.6560678316180088e+01 0.0000000000000000e+00 6.6560678316180088e+01 2.9085212700112361e+01 0.0000000000000000e+00 0.0000000000000000e+00 0.0000000000000000e+00 0.0000000000000000e+00  6.3073039699038553e+01 5.7961859082578719e+01 0.0000000000000000e+00 5.7961859082578719e+01 -4.7345311977789653e+00 0.0000000000000000e+00 0.0000000000000000e+00 0.0000000000000000e+00 0.0000000000000000e+00  7.6187592500470620e+00 3.2868494211105293e+01 0.0000000000000000e+00 3.2868494211105293e+01 4.5769695142031559e+01 0.0000000000000000e+00 0.0000000000000000e+00 0.0000000000000000e+00 0.0000000000000000e+00  1.9949793461884397e+01 -5.1984447342752098e+00 0.0000000000000000e+00 -5.1984447342752098e+00 3.9440440733614373e+01 0.0000000000000000e+00 0.0000000000000000e+00 0.0000000000000000e+00 0.0000000000000000e+00  1.4305529308340740e+01 1.6946597075454293e+00 0.0000000000000000e+00 1.6946597075454293e+00 3.4206008748233529e+01 0.0000000000000000e+00 0.0000000000000000e+00 0.0000000000000000e+00 0.0000000000000000e+00  -7.8965927248948233e+01 -4.7478203717745210e+01 0.0000000000000000e+00 -4.7478203717745210e+01 1.0713510917390646e+02 0.0000000000000000e+00 0.0000000000000000e+00 0.0000000000000000e+00 0.0000000000000000e+00  -1.0541575853258074e+02 1.4390905288785389e+01 0.0000000000000000e+00 1.4390905288785389e+01 1.5167499526316109e+02 0.0000000000000000e+00 0.0000000000000000e+00 0.0000000000000000e+00 0.0000000000000000e+00  -2.8319877966994764e+00 -9.7561603616357448e+00 0.0000000000000000e+00 -9.7561603616357448e+00 8.4555485038280310e+01 0.0000000000000000e+00 0.0000000000000000e+00 0.0000000000000000e+00 0.0000000000000000e+00  -1.1544395758580282e+02 2.7917661072909965e+01 0.0000000000000000e+00 2.7917661072909965e+01 1.5105986879370454e+02 0.0000000000000000e+00 0.0000000000000000e+00 0.0000000000000000e+00 0.0000000000000000e+00  2.6410985173817295e+01 9.2314393601685563e+00 0.0000000000000000e+00 9.2314393601685563e+00 3.5878169803214995e+01 0.0000000000000000e+00 0.0000000000000000e+00 0.0000000000000000e+00 0.0000000000000000e+00  2.0954811137711335e+01 -1.8854508466524230e+01 0.0000000000000000e+00 -1.8854508466524230e+01 5.0603742501563730e+01 0.0000000000000000e+00 0.0000000000000000e+00 0.0000000000000000e+00 0.0000000000000000e+00  -3.3082890315045752e+01 -5.5995939492801604e+01 0.0000000000000000e+00 -5.5995939492801604e+01 8.2734242935804275e+01 0.0000000000000000e+00 0.0000000000000000e+00 0.0000000000000000e+00 0.0000000000000000e+00  1.4831678391970561e+01 -4.9295570434593031e+01 0.0000000000000000e+00 -4.9295570434593031e+01 2.2839657185987239e+01 0.0000000000000000e+00 0.0000000000000000e+00 0.0000000000000000e+00 0.0000000000000000e+00  2.8304742294430962e+01 -7.7885432129352481e+01 0.0000000000000000e+00 -7.7885432129352481e+01 6.5644085447734979e-01 0.0000000000000000e+00 0.0000000000000000e+00 0.0000000000000000e+00 0.0000000000000000e+00  9.0730570569165238e+01 9.7571087328141051e+00 0.0000000000000000e+00 9.7571087328141051e+00 -5.0713776305097639e+01 0.0000000000000000e+00 0.0000000000000000e+00 0.0000000000000000e+00 0.0000000000000000e+00  1.3621278623598292e+02 -4.0619350730974034e+01 0.0000000000000000e+00 -4.0619350730974034e+01 -1.0124521187116513e+02 0.0000000000000000e+00 0.0000000000000000e+00 0.0000000000000000e+00 0.0000000000000000e+00  3.6631540640100319e+01 7.7784979387845743e+00 0.0000000000000000e+00 7.7784979387845743e+00 9.5669210876255182e+00 0.0000000000000000e+00 0.0000000000000000e+00 0.0000000000000000e+00 0.0000000000000000e+00  7.1452159023870054e+00 6.4342292524136226e+00 0.0000000000000000e+00 6.4342292524136226e+00 3.0018506121579147e+01 0.0000000000000000e+00 0.0000000000000000e+00 0.0000000000000000e+00 0.0000000000000000e+00  -1.5090541399035324e+01 -1.9183620261130450e+01 0.0000000000000000e+00 -1.9183620261130450e+01 6.0354545215597135e+01 0.0000000000000000e+00 0.0000000000000000e+00 0.0000000000000000e+00 0.0000000000000000e+00  1.7321812893397983e+01 -3.2698886396736007e+01 0.0000000000000000e+00 -3.2698886396736007e+01 2.7660649709013821e+01 0.0000000000000000e+00 0.0000000000000000e+00 0.0000000000000000e+00 0.0000000000000000e+00  1.6267557607888630e+01 -7.8134570370241079e+01 0.0000000000000000e+00 -7.8134570370241079e+01 5.4650627499456936e+00 0.0000000000000000e+00 0.0000000000000000e+00 0.0000000000000000e+00 0.0000000000000000e+00  9.2189859111576084e+01 -2.5846185326271225e+01 0.0000000000000000e+00 -2.5846185326271225e+01 -4.5940813031898152e+01 0.0000000000000000e+00 0.0000000000000000e+00 0.0000000000000000e+00 0.0000000000000000e+00  1.2660564703659466e+02 -2.1412568063282421e+01 0.0000000000000000e+00 -2.1412568063282421e+01 -9.6743484611133454e+01 0.0000000000000000e+00 0.0000000000000000e+00 0.0000000000000000e+00 0.0000000000000000e+00  5.9948544872585920e+01 2.1957251045900684e+01 0.0000000000000000e+00 2.1957251045900684e+01 -1.0954968363662815e+01 0.0000000000000000e+00 0.0000000000000000e+00 0.0000000000000000e+00 0.0000000000000000e+00  2.3309567506704308e+01 4.4563493204619484e-02 0.0000000000000000e+00 4.4563493204619484e-02 1.0929618426511237e+01 0.0000000000000000e+00 0.0000000000000000e+00 0.0000000000000000e+00 0.0000000000000000e+00  4.7044415596651206e+01 -1.9336451521364751e+01 0.0000000000000000e+00 -1.9336451521364751e+01 2.4728734022939265e+00 0.0000000000000000e+00 0.0000000000000000e+00 0.0000000000000000e+00 0.0000000000000000e+00  3.2377200739256018e+01 -9.0181127056375033e+01 0.0000000000000000e+00 -9.0181127056375033e+01 8.3282470639453408e+00 0.0000000000000000e+00 0.0000000000000000e+00 0.0000000000000000e+00 0.0000000000000000e+00  7.2167223866126122e+01 -2.2949930581741508e+01 0.0000000000000000e+00 -2.2949930581741508e+01 -3.8322290420531573e+01 0.0000000000000000e+00 0.0000000000000000e+00 0.0000000000000000e+00 0.0000000000000000e+00  4.7185857953817560e+01 4.0910468746200017e+00 0.0000000000000000e+00 4.0910468746200017e+00 -2.3088265481496233e+01 0.0000000000000000e+00 0.0000000000000000e+00 0.0000000000000000e+00 0.0000000000000000e+00  1.9723387939299222e+01 -4.9315693325874737e+00 0.0000000000000000e+00 -4.9315693325874737e+00 6.4462907261432765e+00 0.0000000000000000e+00 0.0000000000000000e+00 0.0000000000000000e+00 0.0000000000000000e+00  9.1347725339278441e+01 2.1159971448097501e+01 0.0000000000000000e+00 2.1159971448097501e+01 -3.9070395512951876e+01 0.0000000000000000e+00 0.0000000000000000e+00 0.0000000000000000e+00 0.0000000000000000e+00  9.7733393556355168e+01 -1.2999969295649937e+01 0.0000000000000000e+00 -1.2999969295649937e+01 -8.7864819978580016e+01 0.0000000000000000e+00 0.0000000000000000e+00 0.0000000000000000e+00 0.0000000000000000e+00  3.6137449135515887e+01 1.9440956604137060e+01 0.0000000000000000e+00 1.9440956604137060e+01 -6.3784541389766281e+00 0.0000000000000000e+00 0.0000000000000000e+00 0.0000000000000000e+00 0.0000000000000000e+00  4.0949175949425651e+00 2.5212621930289643e+01 0.0000000000000000e+00 2.5212621930289643e+01 3.2128051804473515e+01 0.0000000000000000e+00 0.0000000000000000e+00 0.0000000000000000e+00 0.0000000000000000e+00  -5.8503616955700139e+01 5.7837908177570370e+01 0.0000000000000000e+00 5.7837908177570370e+01 9.0543223368104790e+01 0.0000000000000000e+00 0.0000000000000000e+00 0.0000000000000000e+00 0.0000000000000000e+00  -1.4606396701357187e+00 -2.2147592007687422e-01 0.0000000000000000e+00 -2.2147592007687422e-01 3.7094479538167349e+01 0.0000000000000000e+00 0.0000000000000000e+00 0.0000000000000000e+00 0.0000000000000000e+00  2.2869621133533578e+01 -7.9744358329852831e+00 0.0000000000000000e+00 -7.9744358329852831e+00 1.1570849592642798e+00 0.0000000000000000e+00 0.0000000000000000e+00 0.0000000000000000e+00 0.0000000000000000e+00  1.0326633491007328e+02 1.9177387765190506e+01 0.0000000000000000e+00 1.9177387765190506e+01 -5.3643537096378935e+01 0.0000000000000000e+00 0.0000000000000000e+00 0.0000000000000000e+00 0.0000000000000000e+00  1.0179794933098070e+02 -2.0825223460031509e+01 0.0000000000000000e+00 -2.0825223460031509e+01 -8.4914545240362500e+01 0.0000000000000000e+00 0.0000000000000000e+00 0.0000000000000000e+00 0.0000000000000000e+00  -6.6362522960799204e+00 -1.9001572699015327e+01 0.0000000000000000e+00 -1.9001572699015327e+01 2.9220787703080074e+01 0.0000000000000000e+00 0.0000000000000000e+00 0.0000000000000000e+00 0.0000000000000000e+00  -1.1064855195769228e+02 4.7026379138167336e+01 0.0000000000000000e+00 4.7026379138167336e+01 1.4459118774155107e+02 0.0000000000000000e+00 0.0000000000000000e+00 0.0000000000000000e+00 0.0000000000000000e+00  -2.6592994909067702e+00 -6.9092894670430898e+00 0.0000000000000000e+00 -6.9092894670430898e+00 9.2404023628574148e+00 0.0000000000000000e+00 0.0000000000000000e+00 0.0000000000000000e+00 0.0000000000000000e+00  -4.2963092615993082e+02 1.5485883562136553e+02 0.0000000000000000e+00 1.5485883562136553e+02 4.2562210569319376e+01 0.0000000000000000e+00 0.0000000000000000e+00 0.0000000000000000e+00 0.0000000000000000e+00  4.1251254407210644e+02 2.4896627330292097e+02 0.0000000000000000e+00 2.4896627330292097e+02 8.5018144179387889e+01 0.0000000000000000e+00 0.0000000000000000e+00 0.0000000000000000e+00 0.0000000000000000e+00  1.2679762887718763e+01 1.1901416451814467e+02 0.0000000000000000e+00 1.1901416451814467e+02 -9.0994177724029424e-01 0.0000000000000000e+00 0.0000000000000000e+00 0.0000000000000000e+00 0.0000000000000000e+00  6.0965590982344837e+00 6.6323681132112950e+00 0.0000000000000000e+00 6.6323681132112950e+00 -2.4079120316974286e+01 0.0000000000000000e+00 0.0000000000000000e+00 0.0000000000000000e+00 0.0000000000000000e+00  1.5438731869849381e+01 1.2962649762604943e+02 0.0000000000000000e+00 1.2962649762604943e+02 2.1752484920679663e+01 0.0000000000000000e+00 0.0000000000000000e+00 0.0000000000000000e+00 0.0000000000000000e+00  -2.2892371690818035e+01 2.0614323802233042e+01 0.0000000000000000e+00 2.0614323802233042e+01 1.4417797821807044e+00 0.0000000000000000e+00 0.0000000000000000e+00 0.0000000000000000e+00 0.0000000000000000e+00  -3.1004034553962970e+01 -2.6103294251214049e+01 0.0000000000000000e+00 -2.6103294251214049e+01 -5.3406974691374876e+00 0.0000000000000000e+00 0.0000000000000000e+00 0.0000000000000000e+00 0.0000000000000000e+00  -1.7217204789703235e+01 -2.4063935669046151e+02 0.0000000000000000e+00 -2.4063935669046151e+02 8.4650403175021669e+00 0.0000000000000000e+00 0.0000000000000000e+00 0.0000000000000000e+00 0.0000000000000000e+00  3.6546977675061361e+00 -1.2262784418511549e+01 0.0000000000000000e+00 -1.2262784418511549e+01 3.3144690950233295e+00 0.0000000000000000e+00 0.0000000000000000e+00 0.0000000000000000e+00 0.0000000000000000e+00  1.5720480948386324e+00 1.1719424442455729e+01 0.0000000000000000e+00 1.1719424442455729e+01 9.4518225613107154e-01 0.0000000000000000e+00 0.0000000000000000e+00 0.0000000000000000e+00 0.0000000000000000e+00  3.1951786326836009e+00 -2.1395870232409715e+00 0.0000000000000000e+00 -2.1395870232409715e+00 3.0529131968821273e+00 0.0000000000000000e+00 0.0000000000000000e+00 0.0000000000000000e+00 0.0000000000000000e+00  -3.7074028232245091e+00 -3.2974037902188513e+01 0.0000000000000000e+00 -3.2974037902188513e+01 -2.1763334832349885e+00 0.0000000000000000e+00 0.0000000000000000e+00 0.0000000000000000e+00 0.0000000000000000e+00  4.9905449991090549e+00 2.8969749658551489e+01 0.0000000000000000e+00 2.8969749658551489e+01 4.6766856638760226e+00 0.0000000000000000e+00 0.0000000000000000e+00 0.0000000000000000e+00 0.0000000000000000e+00  1.1602197072734956e+01 2.7745849309867822e+01 0.0000000000000000e+00 2.7745849309867822e+01 1.1707413060726056e+01 0.0000000000000000e+00 0.0000000000000000e+00 0.0000000000000000e+00 0.0000000000000000e+00  1.4213614919498825e+01 -2.1263394758228678e+01 0.0000000000000000e+00 -2.1263394758228678e+01 1.3515158914390176e+01 0.0000000000000000e+00 0.0000000000000000e+00 0.0000000000000000e+00 0.0000000000000000e+00  -1.2852665561642814e+01 -1.1124882711456517e+02 0.0000000000000000e+00 -1.1124882711456517e+02 -6.7049067714664377e+00 0.0000000000000000e+00 0.0000000000000000e+00 0.0000000000000000e+00 0.0000000000000000e+00  -4.3179009331892351e+00 1.2400601092096765e+02 0.0000000000000000e+00 1.2400601092096765e+02 1.1438386135917471e+00 0.0000000000000000e+00 0.0000000000000000e+00 0.0000000000000000e+00 0.0000000000000000e+00  -3.3224924168692951e+01 -1.2700464777790130e+02 0.0000000000000000e+00 -1.2700464777790130e+02 -3.8688075407666496e+00 0.0000000000000000e+00 0.0000000000000000e+00 0.0000000000000000e+00 0.0000000000000000e+00  -3.3051875081819646e+00 -3.4345357448754008e+01 0.0000000000000000e+00 -3.4345357448754008e+01 -4.0354787705325421e+00 0.0000000000000000e+00 0.0000000000000000e+00 0.0000000000000000e+00 0.0000000000000000e+00  -3.3274385185445198e+01 1.3538493205116998e+02 0.0000000000000000e+00 1.3538493205116998e+02 -9.3417910006820719e+00 0.0000000000000000e+00 0.0000000000000000e+00 0.0000000000000000e+00 0.0000000000000000e+00  8.4001547427429379e+00 -3.4004005598526120e+01 0.0000000000000000e+00 -3.4004005598526120e+01 8.9286836789819333e+00 0.0000000000000000e+00 0.0000000000000000e+00 0.0000000000000000e+00 0.0000000000000000e+00  -3.5774570649979407e+00 -2.6482640537294024e+01 0.0000000000000000e+00 -2.6482640537294024e+01 -4.1790003909531253e+00 0.0000000000000000e+00 0.0000000000000000e+00 0.0000000000000000e+00 0.0000000000000000e+00  1.5569720886517339e+02 -6.6827373988300479e+01 0.0000000000000000e+00 -6.6827373988300479e+01 1.7440338688705449e+01 0.0000000000000000e+00 0.0000000000000000e+00 0.0000000000000000e+00 0.0000000000000000e+00  -3.7291175362119776e+02 -5.3219756834636644e+02 0.0000000000000000e+00 -5.3219756834636644e+02 -4.0964593360268665e+01 0.0000000000000000e+00 0.0000000000000000e+00 0.0000000000000000e+00 0.0000000000000000e+00  -1.8467072405344911e+01 5.6368636744264847e+01 0.0000000000000000e+00 5.6368636744264847e+01 -1.0706794572140138e+01 0.0000000000000000e+00 0.0000000000000000e+00 0.0000000000000000e+00 0.0000000000000000e+00  9.2698731754855430e+00 3.1536772133495393e+01 0.0000000000000000e+00 3.1536772133495393e+01 9.4714512802672015e+00 0.0000000000000000e+00 0.0000000000000000e+00 0.0000000000000000e+00 0.0000000000000000e+00  -5.2226029770755247e+00 -2.7185561240200826e+01 0.0000000000000000e+00 -2.7185561240200826e+01 -7.1548017070343546e+00 0.0000000000000000e+00 0.0000000000000000e+00 0.0000000000000000e+00 0.0000000000000000e+00  1.2846457455440087e+01 -1.9501658138565702e+01 0.0000000000000000e+00 -1.9501658138565702e+01 1.2492284769924298e+01 0.0000000000000000e+00 0.0000000000000000e+00 0.0000000000000000e+00 0.0000000000000000e+00  3.6268191692032370e-01 -5.5803433655043211e+00 0.0000000000000000e+00 -5.5803433655043211e+00 4.0960039301374662e+00 0.0000000000000000e+00 0.0000000000000000e+00 0.0000000000000000e+00 0.0000000000000000e+00  -4.2304915655144750e+00 -3.6872050977375949e+01 0.0000000000000000e+00 -3.6872050977375949e+01 -4.6699976236325780e+00 0.0000000000000000e+00 0.0000000000000000e+00 0.0000000000000000e+00 0.0000000000000000e+00  -2.2507645617789183e+00 -3.2997055307803350e+01 0.0000000000000000e+00 -3.2997055307803350e+01 -2.6285881935957329e+00 0.0000000000000000e+00 0.0000000000000000e+00 0.0000000000000000e+00 0.0000000000000000e+00  6.9980038994668599e+00 -7.1518049847412719e+00 0.0000000000000000e+00 -7.1518049847412719e+00 6.6042167920755555e+00 0.0000000000000000e+00 0.0000000000000000e+00 0.0000000000000000e+00 0.0000000000000000e+00  4.0900878769232047e+00 -1.9703671274538777e+00 0.0000000000000000e+00 -1.9703671274538777e+00 3.6624200999725156e+00 0.0000000000000000e+00 0.0000000000000000e+00 0.0000000000000000e+00 0.0000000000000000e+00  -4.0417441772899902e+00 -3.0626908955137743e+01 0.0000000000000000e+00 -3.0626908955137750e+01 -4.5851376353388664e+00 0.0000000000000000e+00 0.0000000000000000e+00 0.0000000000000000e+00 0.0000000000000000e+00  5.7124597559213564e-01 6.6326454841120670e+00 0.0000000000000000e+00 6.6326454841120670e+00 -6.4748406638203249e-01 0.0000000000000000e+00 0.0000000000000000e+00 0.0000000000000000e+00 0.0000000000000000e+00  -4.9242624792881209e+00 7.4184172830290152e+00 0.0000000000000000e+00 7.4184172830290160e+00 -1.1022241946524449e+01 0.0000000000000000e+00 0.0000000000000000e+00 0.0000000000000000e+00 0.0000000000000000e+00  -3.4938410289276485e+00 -3.2116551413800565e+01 0.0000000000000000e+00 -3.2116551413800565e+01 9.4079480440480157e-01 0.0000000000000000e+00 0.0000000000000000e+00 0.0000000000000000e+00 0.0000000000000000e+00  -2.1002725232307142e+00 -1.9548474275471359e+00 0.0000000000000000e+00 -1.9548474275471359e+00 -8.2833781328539722e+00 0.0000000000000000e+00 0.0000000000000000e+00 0.0000000000000000e+00 0.0000000000000000e+00  -6.6732211437887790e+00 -3.2043686220470967e+01 0.0000000000000000e+00 -3.2043686220470967e+01 -8.5769446560302480e+00 0.0000000000000000e+00 0.0000000000000000e+00 0.0000000000000000e+00 0.0000000000000000e+00  4.7827019333151783e+00 3.7075416303084423e+00 0.0000000000000000e+00 3.7075416303084423e+00 9.0073245025638329e+00 0.0000000000000000e+00 0.0000000000000000e+00 0.0000000000000000e+00 0.0000000000000000e+00  1.8209100855101962e+01 2.1287408363114722e+01 0.0000000000000000e+00 2.1287408363114718e+01 1.8261764080613300e+01 0.0000000000000000e+00 0.0000000000000000e+00 0.0000000000000000e+00 0.0000000000000000e+00  2.8481144354564885e+00 5.6752254774166584e+00 0.0000000000000000e+00 5.6752254774166584e+00 2.4656539782672442e+00 0.0000000000000000e+00 0.0000000000000000e+00 0.0000000000000000e+00 0.0000000000000000e+00  1.2614706136188929e+01 3.2616881343369911e+01 0.0000000000000000e+00 3.2616881343369911e+01 1.3789231346620378e+01 0.0000000000000000e+00 0.0000000000000000e+00 0.0000000000000000e+00 0.0000000000000000e+00  1.4145368667816340e+01 2.7685820056392167e+01 0.0000000000000000e+00 2.7685820056392167e+01 1.5485192115649754e+01 0.0000000000000000e+00 0.0000000000000000e+00 0.0000000000000000e+00 0.0000000000000000e+00  -3.3323672645878723e+01 8.8418393811297150e+01 0.0000000000000000e+00 8.8418393811297150e+01 1.1596187767994866e+01 0.0000000000000000e+00 0.0000000000000000e+00 0.0000000000000000e+00 0.0000000000000000e+00  1.2873671852512340e+01 1.2743567639995375e+02 0.0000000000000000e+00 1.2743567639995375e+02 1.5166143411332044e+01 0.0000000000000000e+00 0.0000000000000000e+00 0.0000000000000000e+00 0.0000000000000000e+00  1.0651434146576345e-01 -1.8089143396538002e+01 0.0000000000000000e+00 -1.8089143396538002e+01 1.8639754118401155e+00 0.0000000000000000e+00 0.0000000000000000e+00 0.0000000000000000e+00 0.0000000000000000e+00  1.8255507331540215e+01 3.3831674634465088e+01 0.0000000000000000e+00 3.3831674634465088e+01 1.9861300185031290e+01 0.0000000000000000e+00 0.0000000000000000e+00 0.0000