<?xml version="1.0"?>
<VTKFile type="UnstructuredGrid"  version="0.1"  >
<UnstructuredGrid>
<Piece  NumberOfPoints="5185" NumberOfCells="10070">
<Points>
<DataArray  type="Float64"  NumberOfComponents="3"  format="ascii">0 1.5 0  0 0 0  0.1232405621108402 0 0  0.1232405621108402 0.02253860454731437 0  0.1476111412843772 0.06045996594834066 0  0.1886148129381372 0.07918571535047463 0  0.2332332010401509 0.07277055962836147 0  0.2673002826264945 0.0432512653964478 0  0.28 0 0  0.5342215165449864 0 0  0.5342215165449864 0.02394141003279682 0  0.5649999999999999 0.06062177826491071 0  0.6121553724366851 0.06893654271085457 0  0.6536231110183285 0.04499513267805775 0  0.6699999999999999 0 0  0.91 0 0  0.9220577136594005 0.04499999999999999 0  0.9550000000000001 0.07794228634059948 0  1 0.09 0  1.045 0.07794228634059946 0  1.077942286340599 0.04499999999999999 0  1.09 0 0  1.52324056211084 0 0  1.52324056211084 0.02253860454731437 0  1.547611141284377 0.06045996594834066 0  1.588614812938137 0.07918571535047463 0  1.633233201040151 0.07277055962836147 0  1.667300282626495 0.0432512653964478 0  1.68 0 0  1.84 0 0  1.857573593128807 0.04242640687119285 0  1.9 0.06 0  1.942426406871193 0.04242640687119285 0  1.96 0 0  2.22324056211084 0 0  2.22324056211084 0.02253860454731437 0  2.247611141284377 0.06045996594834066 0  2.288614812938137 0.07918571535047463 0  2.333233201040151 0.07277055962836147 0  2.367300282626494 0.0432512653964478 0  2.38 0 0  2.534221516544986 0 0  2.534221516544986 0.02394141003279682 0  2.565 0.06062177826491071 0  2.612155372436685 0.06893654271085457 0  2.653623111018328 0.04499513267805775 0  2.67 0 0  3 0 0  3 1.5 0  0 0.75 0  1.5 1.5 0  0 0.375 0  0.75 1.5 0  2.25 1.5 0  3 0.75 0  1.216228490499689 0.8069757125887627 0  1.965682393638027 0.8065702515463131 0  0.6025408912810675 0.8974591087189325 0  2.494676348647751 0.9946763486477508 0  2.356709259621435 0.5447946099875809 0  0.8599642199210003 0.5226206461323684 0  0.4216394361293908 0.4974105777134379 0  0.375 1.5 0  0 1.125 0  1.875 1.5 0  1.591091407334617 1.058091082812092 0  1.125 1.5 0  1.590810830624645 0.5394732912049653 0  0.9375 1.13479915923725 0  3 0.375 0  3 1.125 0  2.625 1.5 0  1.995245765771775 0.4277948434396763 0  2.145880954246818 1.137688199332401 0  1.227783477957362 0.427141979786574 0  2.705436295205127 0.5625 0  1.268702849688826 1.133996222613609 0  0.3526676910824388 1.147332308917561 0  0.3097907151415997 0.7889144057821572 0  0.903221947180751 0.828141240074398 0  0.6461527570085278 1.190944174645022 0  2.258488242757536 0.8210127920483788 0  2.400058919161888 1.260760484185309 0  2.778889354513028 0.9375 0  2.725079155390203 1.225079155390203 0  1.853608154101008 1.201589046866999 0  2.540576981905353 0.3370046821869876 0  0.7811555507088518 0.2732832036972447 0  1.493222576519009 0.798835058995101 0  1.747409300790817 0.3184283662481822 0  1.459899526511598 0.3067772450698331 0  0.1875 1.5 0  0 0.5625 0  2.521594883841638 0.7403247928378012 0  0.2438476629309629 0.32244155773108 0  3 0.1875 0  2.776470677837637 0.28125 0  2.121241022911138 0.6281701698960991 0  1.728545483402697 0.8581016441191361 0  1.012422318322288 0.3271268474523591 0  2.305755967143385 0.3144626442661202 0  1.30662028105542 0 0  1.6875 1.5 0  1.8265892939935 0.6051726401583923 0  0.5458598773451642 0.2962606377138959 0  0 0.9375 0  1.349377516922966 0.6209336375388498 0  1.079656249611334 0.612728400373996 0  0.7151087041654347 0.6989529576230681 0  2.0625 1.5 0  1.59375 1.288981971791887 0  2.085107439753329 0.2191742438537923 0  0.6402689932842839 0.4934943541428904 0  1.228474271256239 0.2064231070567615 0  1.3125 1.5 0  1.06968030723948 0.9647793670181679 0  0.2113350105157037 0.5332932754427466 0  0 1.3125 0  0.5051540211699285 0.7110632261327643 0  0.4775171365050886 1.316467280173536 0  1.967112413780365 1.020384154410382 0  0.8191736043349165 1.304781661824189 0  1.103455205015878 1.280328263155604 0  0.7649318329201844 1.023310716596371 0  0.2120544860962804 0.9823800432730223 0  1.359100570345391 0.9517705003379791 0  0.1711043107784345 1.21875 0  3 1.3125 0  2.8125 1.5 0  2.714178691455841 0.7554813872281284 0  2.217815962767571 1.313132398873298 0  2.020480176543968 1.307095379623413 0  2.29875620117699 1.013690599387144 0  0.3848285295772316 0.1937040883803935 0  0.9375 1.5 0  3 0.9375 0  2.4375 1.5 0  3 0.5625 0  0 0.1875 0  0.5625 1.5 0  2.835 0 0  1.386383673099448 1.305536509588035 0  1.773513842966063 1.0362399691084 0  2.179843036592861 0.4515211056338026 0  0.4134910794700652 0.9582824971065591 0  2.107214813096467 0.9125353945687058 0  1.916698009609654 0.2702971158297667 0  2.533006985360663 0.5155509623987015 0  2.838574938309606 0.4465309273225452 0  0.3016597101560133 1.338635596991575 0  1.641573393474498 0.7066136805426366 0  2.855238878880983 0.65625 0  1.398074618385877 0.1459865472102536 0  1.756539173374812 1.342993235461221 0  2.434593137832078 0.2067018044975929 0  1.434366740555482 0.4743139981449843 0  1.440742946818836 1.142108619191562 0  0.549043549720087 1.055391704395 0  2.571565919072277 1.32487216700893 0  2.535776521770127 1.159155922815097 0  2.652193336606067 1.04269083214613 0  0.660031172970541 1.35825582857438 0  2.607645482283307 0.8780318994093907 0  1.09590027081365 1.121554905778777 0  0.1474979543625655 0.8283466240195498 0  1.056776372361757 0.7739494406659941 0  0.3647560414155882 0.6427945145874604 0  1.699724067482516 1.17405657891935 0  0.913786173488833 0.9822051271795349 0  0.9283491691592597 0.66876089182342 0  0.7498959802087029 0.8498501951910959 0  0.3951228082283652 0.3465404522808934 0  1.23887612906836 1.360760366473919 0  0.1206420558503055 0.65625 0  1.735537276557186 0.4760109437618505 0  1.799297742536812 0.1791526413061006 0  1.970987958006469 0.6541756362249113 0  1.080810552147559 0.461742062484039 0  2.268149337929528 0.6688757993926466 0  2.413602460817152 0.8574959373397593 0  2.833998248858927 1.096635576389 0  2.71875 1.378451438260757 0  2.001906612723158 1.162230131308666 0  2.859452984352005 0.8083820929207302 0  2.688478120768856 0.4086214703657035 0  1.214106348747711 0.9519545202622776 0  2.850368184690094 1.307066142740315 0  1.864893983840636 0.9141560734025058 0  1.60661446108863 0.2395589708587393 0  1.61163060570479 0.3901968276506504 0  2.771867619212225 0.1335769833684914 0  0.7969119039620236 1.163109784140262 0  0.9599416701963486 1.276596315583475 0  2.103624150445193 0.7698297553089299 0  2.279721363034605 1.185280797873663 0  2.34375 1.392122382816539 0  0.1382307077648764 1.361769292235123 0  0.1426478344893104 0.2175212356047023 0  2.406413880432258 1.104106228251116 0  2.414971181397263 0.4111042519521358 0  2.637277274673136 0.2192348292007474 0  1.353600469573883 0.7646239317376279 0  1.494012125944227 0.651091825511382 0  1.590274899157226 0.9102986199774393 0  1.028633500752755 1.396325660524358 0  1.829615743479497 0.7518128394998403 0  1.861059000344659 0.3963812297683985 0  0.510900777690535 1.185277566959035 0  1.213080286311768 0.6640546084318578 0  0.79 0 0  0.8167897395818556 0.1376517357725223 0  0.9319739747594649 0.2144569310211157 0  1.889188139713804 1.330032757791382 0  0.655714683266079 0.2049689967103183 0  2.09162028105542 0 0  0.1359367774292784 0.4137345801986589 0  0.4380798275211911 0.8267965724704243 0  2.40400705830434 0.6721965963037969 0  0.3027633520173528 0.4394586980387968 0  0.8782788855287165 0.379708545377904 0  0.7595213470930909 0.4371189613680841 0  1.317967779309324 0.3170637160852436 0  0.6053759621699666 0.6225641226781395 0  0.6530309552265516 0.3661735489900947 0  2.594089294631991 0.631328821944253 0  0 1.03125 0  0.1304283746114646 1.089970844689444 0  0.4071107582724932 0 0  1.469526282978338 1.017083854458662 0  1.088959023533499 0.2104112015424126 0  1.161808378403757 0.3165749773273478 0  2.172966779463329 0.3188379172988492 0  2.216343768168092 0.1920401700474863 0  3 0.09375 0  1.905024675365066 0.5108806275986008 0  1.702014103004408 0.5963171944847371 0  0.2428042557945101 0.6514309613450368 0  3 1.40625 0  0.262372466757009 0.191725613649506 0  2.116791485436391 1.387145016777417 0  1.96875 1.5 0  2.885528053432104 0.3345800153572822 0  2.875601419873791 0.2042517854891826 0  2.298911783255236 0.4400662366556407 0  2.459247322083259 1.363881377923602 0  0.9735587139454543 0.5585353431007029 0  1.176315140569268 0.5379697839544898 0  2.0296370010214 0.5459700999805513 0  0.4987416453488727 0.4060939323248423 0  0.5397511702990104 0.1771676763212877 0  3 1.21875 0  2.238710633113112 0.5542203056099733 0  1.19831014052771 0 0  1.583962270593198 1.173633921912192 0  1.650563144166832 1.390075718520202 0  1.496025571730155 1.371899864460592 0  3 1.03125 0  2.887481932992674 0.9890041589451042 0  0.247836885460272 1.094286258989912 0  0.4719220056590702 0.6009044603312741 0  1.97565550452845 0.1615660574331665 0  2.131135530378305 0.1108580974478677 0  1.318642333542132 0.5051755928544708 0  1.217460132329928 1.242599824876711 0  1.511891312109549 0.1714963794002952 0  2.174601400318987 1.01685942781215 0  0.9082882406313817 1.384236564302014 0  0.6140422604397168 0.7728109899968187 0  0.8289359680247524 0.7347587321432018 0  0.741509926624258 0.5729763888559004 0  2.058356323822746 0.3313153147701495 0  0.4534336320756143 0.1034622594748756 0  1.40625 1.5 0  1.689084537897351 0.9628079283127213 0  1.156270839633873 0.1228556218721798 0  1.29033806179015 0.1118395069726669 0  1.460859151915469 0.9057320169622244 0  2.326558662668462 0.1831424028173474 0  0.9693052477371982 0.4460054238200853 0  0.6625304018229865 1.076650755704414 0  1.41493042158313 0 0  0.4485426513928407 1.096421738127594 0  0.2454589766548061 0.8778352103982039 0  0.1115239912906509 0.9339683416032414 0  1.134782462834443 0.8782884736059876 0  0.9999448991609674 1.04695529392896 0  0.9835215815673453 0.9000292002687431 0  2.53125 1.5 0  0.3175564878698739 1.010319294269645 0  1.971944763694389 0.9134401013848152 0  2.06
[...]
<PointData  Tensors="f_264"> 
<DataArray  type="Float64"  Name="f_264"  NumberOfComponents="9" format="ascii">-4.3968234391585268e+00 -6.4272073789674096e+00 0.0000000000000000e+00 -6.4272073789674096e+00 -5.8467744320997630e+00 0.0000000000000000e+00 0.0000000000000000e+00 0.0000000000000000e+00 0.0000000000000000e+00  3.2205441449181130e+01 -1.9177006254680502e+00 0.0000000000000000e+00 -1.9177006254680502e+00 2.3244956199678487e+01 0.0000000000000000e+00 0.0000000000000000e+00 0.0000000000000000e+00 0.0000000000000000e+00  2.5575043709981870e+01 -1.0705200112706461e+00 0.0000000000000000e+00 -1.0705200112706461e+00 3.2914652246549331e+01 0.0000000000000000e+00 0.0000000000000000e+00 0.0000000000000000e+00 0.0000000000000000e+00  4.4587143411499980e+01 8.3920020883273665e+00 0.0000000000000000e+00 8.3920020883273665e+00 1.0848768868361876e+01 0.0000000000000000e+00 0.0000000000000000e+00 0.0000000000000000e+00 0.0000000000000000e+00  4.4447624423228795e+01 8.7376092876085689e+00 0.0000000000000000e+00 8.7376092876085689e+00 9.3053124764750503e+00 0.0000000000000000e+00 0.0000000000000000e+00 0.0000000000000000e+00 0.0000000000000000e+00  3.1208908540758721e+01 1.6475021732632364e+01 0.0000000000000000e+00 1.6475021732632364e+01 2.5350902775133893e+01 0.0000000000000000e+00 0.0000000000000000e+00 0.0000000000000000e+00 0.0000000000000000e+00  3.8461309862105523e+01 1.5655007802647230e+01 0.0000000000000000e+00 1.5655007802647230e+01 1.2862669315488082e+01 0.0000000000000000e+00 0.0000000000000000e+00 0.0000000000000000e+00 0.0000000000000000e+00  2.6550806475657602e+01 8.3189481877029703e+00 0.0000000000000000e+00 8.3189481877029703e+00 2.8001965386462178e+01 0.0000000000000000e+00 0.0000000000000000e+00 0.0000000000000000e+00 0.0000000000000000e+00  2.8429871705138765e+01 -1.1710393689354968e+00 0.0000000000000000e+00 -1.1710393689354968e+00 3.3276932664312035e+01 0.0000000000000000e+00 0.0000000000000000e+00 0.0000000000000000e+00 0.0000000000000000e+00  2.8818390105719942e+01 -4.1143514072472209e-01 0.0000000000000000e+00 -4.1143514072472209e-01 2.2151469871225803e+01 0.0000000000000000e+00 0.0000000000000000e+00 0.0000000000000000e+00 0.0000000000000000e+00  -3.4251475843853002e-01 -1.4305632226011717e+01 0.0000000000000000e+00 -1.4305632226011717e+01 4.3515754233163179e+01 0.0000000000000000e+00 0.0000000000000000e+00 0.0000000000000000e+00 0.0000000000000000e+00  6.9791452843577444e+00 7.4928001177277377e+00 0.0000000000000000e+00 7.4928001177277377e+00 4.6472995887759829e+01 0.0000000000000000e+00 0.0000000000000000e+00 0.0000000000000000e+00 0.0000000000000000e+00  1.6621877429107670e+01 -3.0932124865168258e+00 0.0000000000000000e+00 -3.0932124865168258e+00 4.3080725798805396e+01 0.0000000000000000e+00 0.0000000000000000e+00 0.0000000000000000e+00 0.0000000000000000e+00  -3.0618080362997446e+00 -9.2468368601089457e-01 0.0000000000000000e+00 -9.2468368601089457e-01 4.9355141812599946e+01 0.0000000000000000e+00 0.0000000000000000e+00 0.0000000000000000e+00 0.0000000000000000e+00  2.9232482756087478e+01 1.5038206918102577e+00 0.0000000000000000e+00 1.5038206918102577e+00 1.8153181566121535e+01 0.0000000000000000e+00 0.0000000000000000e+00 0.0000000000000000e+00 0.0000000000000000e+00  2.4591362158082067e+01 -2.5824798603987293e+00 0.0000000000000000e+00 -2.5824798603987293e+00 3.3596227870933909e+01 0.0000000000000000e+00 0.0000000000000000e+00 0.0000000000000000e+00 0.0000000000000000e+00  1.2285152205624948e+01 -7.8321526009539451e+00 0.0000000000000000e+00 -7.8321526009539451e+00 3.4150959453406379e+01 0.0000000000000000e+00 0.0000000000000000e+00 0.0000000000000000e+00 0.0000000000000000e+00  2.5466596833130485e+01 -1.2359664870810690e+01 0.0000000000000000e+00 -1.2359664870810690e+01 2.0029577880284563e+01 0.0000000000000000e+00 0.0000000000000000e+00 0.0000000000000000e+00 0.0000000000000000e+00  3.4356883352803827e+01 -1.5687733376269142e+01 0.0000000000000000e+00 -1.5687733376269142e+01 1.3377582607171828e+01 0.0000000000000000e+00 0.0000000000000000e+00 0.0000000000000000e+00 0.0000000000000000e+00  3.6504845048248377e+01 -1.5695276520924120e+00 0.0000000000000000e+00 -1.5695276520924120e+00 7.0992713056491699e+00 0.0000000000000000e+00 0.0000000000000000e+00 0.0000000000000000e+00 0.0000000000000000e+00  5.5175939234445423e+01 -1.5371541506526235e+01 0.0000000000000000e+00 -1.5371541506526235e+01 -1.2237734406120415e+01 0.0000000000000000e+00 0.0000000000000000e+00 0.0000000000000000e+00 0.0000000000000000e+00  1.9857375811885092e+01 -2.0132443849847399e+00 0.0000000000000000e+00 -2.0132443849847399e+00 2.8058811140156774e+01 0.0000000000000000e+00 0.0000000000000000e+00 0.0000000000000000e+00 0.0000000000000000e+00  1.7536602632586646e+01 5.6453524559328985e+00 0.0000000000000000e+00 5.6453524559328985e+00 2.3064846339462999e+01 0.0000000000000000e+00 0.0000000000000000e+00 0.0000000000000000e+00 0.0000000000000000e+00  2.0456124207823205e+01 -3.3627967166682775e+00 0.0000000000000000e+00 -3.3627967166682775e+00 2.9067302376624255e+01 0.0000000000000000e+00 0.0000000000000000e+00 0.0000000000000000e+00 0.0000000000000000e+00  2.5842436812429863e+01 -7.8649335983490429e+00 0.0000000000000000e+00 -7.8649335983490429e+00 2.1414401594365494e+01 0.0000000000000000e+00 0.0000000000000000e+00 0.0000000000000000e+00 0.0000000000000000e+00  2.5461375258551925e+01 -1.3230603336197230e+01 0.0000000000000000e+00 -1.3230603336197230e+01 1.3850895299758321e+01 0.0000000000000000e+00 0.0000000000000000e+00 0.0000000000000000e+00 0.0000000000000000e+00  3.7244567568570410e+01 -9.8985121850141038e+00 0.0000000000000000e+00 -9.8985121850141038e+00 4.3347018980967791e+00 0.0000000000000000e+00 0.0000000000000000e+00 0.0000000000000000e+00 0.0000000000000000e+00  4.1445665001852483e+01 -9.0968221214989260e+00 0.0000000000000000e+00 -9.0968221214989260e+00 -3.8691169498129954e+00 0.0000000000000000e+00 0.0000000000000000e+00 0.0000000000000000e+00 0.0000000000000000e+00  4.2325318992740002e+01 4.7430709173595265e+00 0.0000000000000000e+00 4.7430709173595265e+00 2.0282803913378893e+00 0.0000000000000000e+00 0.0000000000000000e+00 0.0000000000000000e+00 0.0000000000000000e+00  2.5412894291863886e+01 1.1155481169567927e+00 0.0000000000000000e+00 1.1155481169567927e+00 1.5570636795119794e+01 0.0000000000000000e+00 0.0000000000000000e+00 0.0000000000000000e+00 0.0000000000000000e+00  3.2892503891507126e+01 -4.2848003768212894e+00 0.0000000000000000e+00 -4.2848003768212894e+00 1.3922940614761146e+01 0.0000000000000000e+00 0.0000000000000000e+00 0.0000000000000000e+00 0.0000000000000000e+00  3.0199132529931795e+01 -1.9578164398170749e+01 0.0000000000000000e+00 -1.9578164398170749e+01 1.4287780425565828e+01 0.0000000000000000e+00 0.0000000000000000e+00 0.0000000000000000e+00 0.0000000000000000e+00  2.7432623655633979e+01 -9.4075749911213364e+00 0.0000000000000000e+00 -9.4075749911213364e+00 7.0726151511890238e+00 0.0000000000000000e+00 0.0000000000000000e+00 0.0000000000000000e+00 0.0000000000000000e+00  3.7021901849671302e+01 6.3486939904558666e+00 0.0000000000000000e+00 6.3486939904558666e+00 6.0370061940446451e+00 0.0000000000000000e+00 0.0000000000000000e+00 0.0000000000000000e+00 0.0000000000000000e+00  8.4732558601231567e+00 3.5161810738091499e+00 0.0000000000000000e+00 3.5161810738091499e+00 2.4187336419550444e+01 0.0000000000000000e+00 0.0000000000000000e+00 0.0000000000000000e+00 0.0000000000000000e+00  4.3436445247525604e+01 1.3242407966415978e+01 0.0000000000000000e+00 1.3242407966415978e+01 2.1516796534926139e+00 0.0000000000000000e+00 0.0000000000000000e+00 0.0000000000000000e+00 0.0000000000000000e+00  3.4396130474667657e+01 -1.1809867319023553e+00 0.0000000000000000e+00 -1.1809867319023553e+00 -7.5655973234546474e+00 0.0000000000000000e+00 0.0000000000000000e+00 0.0000000000000000e+00 0.0000000000000000e+00  2.1966647472934131e+01 1.2484296188037589e+00 0.0000000000000000e+00 1.2484296188037589e+00 6.2967930698361041e+00 0.0000000000000000e+00 0.0000000000000000e+00 0.0000000000000000e+00 0.0000000000000000e+00  1.4998743831202814e+01 9.0351575074550130e+00 0.0000000000000000e+00 9.0351575074550130e+00 1.0950809280144789e+01 0.0000000000000000e+00 0.0000000000000000e+00 0.0000000000000000e+00 0.0000000000000000e+00  1.0090329378837288e+00 7.7451035632843048e+00 0.0000000000000000e+00 7.7451035632843048e+00 2.2284797359483729e+01 0.0000000000000000e+00 0.0000000000000000e+00 0.0000000000000000e+00 0.0000000000000000e+00  9.3399419657904161e+00 -9.3018442567273230e+00 0.0000000000000000e+00 -9.3018442567273230e+00 8.7564464918136551e+00 0.0000000000000000e+00 0.0000000000000000e+00 0.0000000000000000e+00 0.0000000000000000e+00  6.5482109891024241e+00 3.0741810432053573e+00 0.0000000000000000e+00 3.0741810432053573e+00 2.0869282475940935e+01 0.0000000000000000e+00 0.0000000000000000e+00 0.0000000000000000e+00 0.0000000000000000e+00  4.8703554022772401e+01 1.1201989320262365e+01 0.0000000000000000e+00 1.1201989320262365e+01 -1.0178400451023416e+01 0.0000000000000000e+00 0.0000000000000000e+00 0.0000000000000000e+00 0.0000000000000000e+00  4.6401471859776144e+01 -1.7510179181722190e+00 0.0000000000000000e+00 -1.7510179181722190e+00 -1.9212962503031175e+01 0.0000000000000000e+00 0.0000000000000000e+00 0.0000000000000000e+00 0.0000000000000000e+00  9.8648811287488822e+00 -4.3678238935766478e+00 0.0000000000000000e+00 -4.3678238935766478e+00 1.0264638657038670e+01 0.0000000000000000e+00 0.0000000000000000e+00 0.0000000000000000e+00 0.0000000000000000e+00  -6.3932556225712593e+00 2.3308085043525106e+00 0.0000000000000000e+00 2.3308085043525106e+00 2.8475127650876342e+01 0.0000000000000000e+00 0.0000000000000000e+00 0.0000000000000000e+00 0.0000000000000000e+00  8.6940692432186779e+00 -5.6876311931152852e+00 0.0000000000000000e+00 -5.6876311931152852e+00 6.0696181206285598e+00 0.0000000000000000e+00 0.0000000000000000e+00 0.0000000000000000e+00 0.0000000000000000e+00  -1.0420055702026876e+02 5.3251917412402030e+01 0.0000000000000000e+00 5.3251917412402030e+01 -1.6499344546304631e+01 0.0000000000000000e+00 0.0000000000000000e+00 0.0000000000000000e+00 0.0000000000000000e+00  1.1510295045122848e+02 7.0555381268396630e+01 0.0000000000000000e+00 7.0555381268396630e+01 2.7451261974060504e+01 0.0000000000000000e+00 0.0000000000000000e+00 0.0000000000000000e+00 0.0000000000000000e+00  1.0504075201626863e+01 2.5575698721634701e+01 0.0000000000000000e+00 2.5575698721634701e+01 7.5463837456685701e+00 0.0000000000000000e+00 0.0000000000000000e+00 0.0000000000000000e+00 0.0000000000000000e+00  -5.2880562299551945e+00 1.2465794491921132e+00 0.0000000000000000e+00 1.2465794491921132e+00 -1.8419571141903720e+01 0.0000000000000000e+00 0.0000000000000000e+00 0.0000000000000000e+00 0.0000000000000000e+00  1.9067828098929883e+01 2.9315104565055361e+01 0.0000000000000000e+00 2.9315104565055361e+01 2.1569027220766916e+01 0.0000000000000000e+00 0.0000000000000000e+00 0.0000000000000000e+00 0.0000000000000000e+00  -1.9079212699112503e+01 7.7203134994147806e+00 0.0000000000000000e+00 7.7203134994147806e+00 -4.4896499250248185e+00 0.0000000000000000e+00 0.0000000000000000e+00 0.0000000000000000e+00 0.0000000000000000e+00  -2.0818744606103561e+01 -5.0648300276505740e+00 0.0000000000000000e+00 -5.0648300276505740e+00 -7.7432316727621817e+00 0.0000000000000000e+00 0.0000000000000000e+00 0.0000000000000000e+00 0.0000000000000000e+00  -2.2763542742044507e+00 -6.4920050735513129e+01 0.0000000000000000e+00 -6.4920050735513129e+01 1.0085111026169297e+01 0.0000000000000000e+00 0.0000000000000000e+00 0.0000000000000000e+00 0.0000000000000000e+00  4.4472990800538792e+00 -1.8073614425486015e+00 0.0000000000000000e+00 -1.8073614425486015e+00 4.4381819184990512e+00 0.0000000000000000e+00 0.0000000000000000e+00 0.0000000000000000e+00 0.0000000000000000e+00  2.2012949689632593e+00 1.8262825559713001e+00 0.0000000000000000e+00 1.8262825559713001e+00 2.1067959527041116e+00 0.0000000000000000e+00 0.0000000000000000e+00 0.0000000000000000e+00 0.0000000000000000e+00  4.1260149107492436e+00 -2.9656123250972605e-01 0.0000000000000000e+00 -2.9656123250972605e-01 4.1235945618518794e+00 0.0000000000000000e+00 0.0000000000000000e+00 0.0000000000000000e+00 0.0000000000000000e+00  -1.7954810764992652e+00 -4.7081989657900110e+00 0.0000000000000000e+00 -4.7081989657900110e+00 -2.4257999054066803e+00 0.0000000000000000e+00 0.0000000000000000e+00 0.0000000000000000e+00 0.0000000000000000e+00  5.3982904347343181e+00 4.4548259318137582e+00 0.0000000000000000e+00 4.4548259318137582e+00 5.7478299891689861e+00 0.0000000000000000e+00 0.0000000000000000e+00 0.0000000000000000e+00 0.0000000000000000e+00  1.2706390475983714e+01 4.0065727278955121e+00 0.0000000000000000e+00 4.0065727278955121e+00 1.2658633149604791e+01 0.0000000000000000e+00 0.0000000000000000e+00 0.0000000000000000e+00 0.0000000000000000e+00  1.4914844018107019e+01 -3.0083589655349781e+00 0.0000000000000000e+00 -3.0083589655349781e+00 1.4910227459777627e+01 0.0000000000000000e+00 0.0000000000000000e+00 0.0000000000000000e+00 0.0000000000000000e+00  -6.5552674655954348e+00 -2.5898783656485566e+01 0.0000000000000000e+00 -2.5898783656485566e+01 -8.5090745654956823e+00 0.0000000000000000e+00 0.0000000000000000e+00 0.0000000000000000e+00 0.0000000000000000e+00  -2.3934712148566084e+00 2.9612588009653351e+01 0.0000000000000000e+00 2.9612588009653351e+01 2.4120746543003193e+00 0.0000000000000000e+00 0.0000000000000000e+00 0.0000000000000000e+00 0.0000000000000000e+00  -1.8230170643734347e+01 -2.9439622859059938e+01 0.0000000000000000e+00 -2.9439622859059938e+01 -1.1616456816523446e+01 0.0000000000000000e+00 0.0000000000000000e+00 0.0000000000000000e+00 0.0000000000000000e+00  -2.6528149637410272e+00 -5.0445872941795988e+00 0.0000000000000000e+00 -5.0445872941795988e+00 -2.7268279840726688e+00 0.0000000000000000e+00 0.0000000000000000e+00 0.0000000000000000e+00 0.0000000000000000e+00  -1.8629441191773633e+01 3.2998211979973334e+01 0.0000000000000000e+00 3.2998211979973334e+01 -1.2708806147719406e+01 0.0000000000000000e+00 0.0000000000000000e+00 0.0000000000000000e+00 0.0000000000000000e+00  9.5151703043549087e+00 -4.9988232810564357e+00 0.0000000000000000e+00 -4.9988232810564357e+00 9.5712137789379117e+00 0.0000000000000000e+00 0.0000000000000000e+00 0.0000000000000000e+00 0.0000000000000000e+00  -2.8156769073415719e+00 -3.7652274828718792e+00 0.0000000000000000e+00 -3.7652274828718792e+00 -2.8288482212395443e+00 0.0000000000000000e+00 0.0000000000000000e+00 0.0000000000000000e+00 0.0000000000000000e+00  2.8652647895134077e+01 -4.7929336246580682e+01 0.0000000000000000e+00 -4.7929336246580682e+01 -5.6320752266744112e+00 0.0000000000000000e+00 0.0000000000000000e+00 0.0000000000000000e+00 0.0000000000000000e+00  -3.7531014414537132e+01 -6.8215712356113386e+01 0.0000000000000000e+00 -6.8215712356113386e+01 -5.3200443278538749e+00 0.0000000000000000e+00 0.0000000000000000e+00 0.0000000000000000e+00 0.0000000000000000e+00  -9.5734953468651884e+00 1.0336168016413351e+01 0.0000000000000000e+00 1.0336168016413351e+01 -1.0830929366908865e+01 0.0000000000000000e+00 0.0000000000000000e+00 0.0000000000000000e+00 0.0000000000000000e+00  9.9908005379822136e+00 4.5454132878292626e+00 0.0000000000000000e+00 4.5454132878292626e+00 1.0223223308146350e+01 0.0000000000000000e+00 0.0000000000000000e+00 0.0000000000000000e+00 0.0000000000000000e+00  -4.8994197983070764e+00 -4.1621280728066212e+00 0.0000000000000000e+00 -4.1621280728066212e+00 -5.3446278017797013e+00 0.0000000000000000e+00 0.0000000000000000e+00 0.0000000000000000e+00 0.0000000000000000e+00  1.3676520286971883e+01 -2.9617064773756914e+00 0.0000000000000000e+00 -2.9617064773756914e+00 1.3728378011232467e+01 0.0000000000000000e+00 0.0000000000000000e+00 0.0000000000000000e+00 0.0000000000000000e+00  2.4357167948638612e+00 -1.1871461326505064e-01 0.0000000000000000e+00 -1.1871461326505064e-01 2.8588693518694970e+00 0.0000000000000000e+00 0.0000000000000000e+00 0.0000000000000000e+00 0.0000000000000000e+00  -3.6826641654124939e+00 -5.3576173198734685e+00 0.0000000000000000e+00 -5.3576173198734685e+00 -3.7173435960233188e+00 0.0000000000000000e+00 0.0000000000000000e+00 0.0000000000000000e+00 0.0000000000000000e+00  -1.5795883676436022e+00 -4.7769960971694818e+00 0.0000000000000000e+00 -4.7769960971694818e+00 -1.5334625082921751e+00 0.0000000000000000e+00 0.0000000000000000e+00 0.0000000000000000e+00 0.0000000000000000e+00  7.8092995782613892e+00 -1.0915705151153581e+00 0.0000000000000000e+00 -1.0915705151153581e+00 7.7860219586539623e+00 0.0000000000000000e+00 0.0000000000000000e+00 0.0000000000000000e+00 0.0000000000000000e+00  4.9262666804384105e+00 -3.1321938602151667e-01 0.0000000000000000e+00 -3.1321938602151667e-01 4.9143203726600593e+00 0.0000000000000000e+00 0.0000000000000000e+00 0.0000000000000000e+00 0.0000000000000000e+00  -3.4288978999842268e+00 -4.4040428065716171e+00 0.0000000000000000e+00 -4.4040428065716180e+00 -3.4049506012382165e+00 0.0000000000000000e+00 0.0000000000000000e+00 0.0000000000000000e+00 0.0000000000000000e+00  1.0422956457109502e+00 1.0767909305263728e+00 0.0000000000000000e+00 1.0767909305263728e+00 9.7481133691353183e-01 0.0000000000000000e+00 0.0000000000000000e+00 0.0000000000000000e+00 0.0000000000000000e+00  -6.6159204916963521e+00 3.0894456581682450e-01 0.0000000000000000e+00 3.0894456581682450e-01 -7.5454462590055558e+00 0.0000000000000000e+00 0.0000000000000000e+00 0.0000000000000000e+00 0.0000000000000000e+00  -6.0435848085270227e-01 -4.5437523671513675e+00 0.0000000000000000e+00 -4.5437523671513675e+00 -7.6530644877869669e-01 0.0000000000000000e+00 0.0000000000000000e+00 0.0000000000000000e+00 0.0000000000000000e+00  -3.5581121577065629e+00 -1.8855864657555432e+00 0.0000000000000000e+00 -1.8855864657555432e+00 -4.4866056390208575e+00 0.0000000000000000e+00 0.0000000000000000e+00 0.0000000000000000e+00 0.0000000000000000e+00  -6.3780969212346044e+00 -4.7274753849698499e+00 0.0000000000000000e+00 -4.7274753849698499e+00 -6.6227902269879158e+00 0.0000000000000000e+00 0.0000000000000000e+00 0.0000000000000000e+00 0.0000000000000000e+00  7.4135503306687962e+00 -4.4447980522438879e-01 0.0000000000000000e+00 -4.4447980522438879e-01 7.9171667329647866e+00 0.0000000000000000e+00 0.0000000000000000e+00 0.0000000000000000e+00 0.0000000000000000e+00  1.9297816860112356e+01 3.2030037238465141e+00 0.0000000000000000e+00 3.2030037238465154e+00 1.9380378699779886e+01 0.0000000000000000e+00 0.0000000000000000e+00 0.0000000000000000e+00 0.0000000000000000e+00  3.7198599333700013e+00 7.7404403514711850e-01 0.0000000000000000e+00 7.7404403514711850e-01 3.7876432108211775e+00 0.0000000000000000e+00 0.0000000000000000e+00 0.0000000000000000e+00 0.0000000000000000e+00  1.3892241257318782e+01 4.8128207024864160e+00 0.0000000000000000e+00 4.8128207024864160e+00 1.4055074797944043e+01 0.0000000000000000e+00 0.0000000000000000e+00 0.0000000000000000e+00 0.0000000000000000e+00  1.5567737460397517e+01 4.0247617352095268e+00 0.0000000000000000e+00 4.0247617352095268e+00 1.5822748268267135e+01 0.0000000000000000e+00 0.0000000000000000e+00 0.0000000000000000e+00 0.0000000000000000e+00  -1.8921569422589641e+01 2.1979957831689049e+01 0.0000000000000000e+00 2.1979957831689049e+01 -4.4529189823736752e+00 0.0000000000000000e+00 0.0000000000000000e+00 0.0000000000000000e+00 0.0000000000000000e+00  1.4640851834872940e+01 3.0252675210223799e+01 0.0000000000000000e+00 3.0252675210223799e+01 1.5246230944991767e+01 0.0000000000000000e+00 0.0000000000000000e+00 0.0000000000000000e+00 0.0000000000000000e+00  1.6686889266102669e+00 -2.7403984420443162e+00 0.0000000000000000e+00 -2.7403984420443162e+00 1.4938968166319349e+00 0.0000000000000000e+00 0.0000000000000000e+00 0.0000000000000000e+00 0.0000000000000000e+00  1.9993950978386223e+01 4.9468669123442979e+00 0.0000000000000000e+00 4.9468669123442979e+00 1.9967887854390707e+01 0.0000000000000000e+00 0.0000000000000000e+00 0.000000000000