<?xml version="1.0"?>
<VTKFile type="UnstructuredGrid"  version="0.1"  >
<UnstructuredGrid>
<Piece  NumberOfPoints="5185" NumberOfCells="10070">
<Points>
<DataArray  type="Float64"  NumberOfComponents="3"  format="ascii">0 1.5 0  0 0 0  0.1232405621108402 0 0  0.1232405621108402 0.02253860454731437 0  0.1476111412843772 0.06045996594834066 0  0.1886148129381372 0.07918571535047463 0  0.2332332010401509 0.07277055962836147 0  0.2673002826264945 0.0432512653964478 0  0.28 0 0  0.5342215165449864 0 0  0.5342215165449864 0.02394141003279682 0  0.5649999999999999 0.06062177826491071 0  0.6121553724366851 0.06893654271085457 0  0.6536231110183285 0.04499513267805775 0  0.6699999999999999 0 0  0.91 0 0  0.9220577136594005 0.04499999999999999 0  0.9550000000000001 0.07794228634059948 0  1 0.09 0  1.045 0.07794228634059946 0  1.077942286340599 0.04499999999999999 0  1.09 0 0  1.52324056211084 0 0  1.52324056211084 0.02253860454731437 0  1.547611141284377 0.06045996594834066 0  1.588614812938137 0.07918571535047463 0  1.633233201040151 0.07277055962836147 0  1.667300282626495 0.0432512653964478 0  1.68 0 0  1.84 0 0  1.857573593128807 0.04242640687119285 0  1.9 0.06 0  1.942426406871193 0.04242640687119285 0  1.96 0 0  2.22324056211084 0 0  2.22324056211084 0.02253860454731437 0  2.247611141284377 0.06045996594834066 0  2.288614812938137 0.07918571535047463 0  2.333233201040151 0.07277055962836147 0  2.367300282626494 0.0432512653964478 0  2.38 0 0  2.534221516544986 0 0  2.534221516544986 0.02394141003279682 0  2.565 0.06062177826491071 0  2.612155372436685 0.06893654271085457 0  2.653623111018328 0.04499513267805775 0  2.67 0 0  3 0 0  3 1.5 0  0 0.75 0  1.5 1.5 0  0 0.375 0  0.75 1.5 0  2.25 1.5 0  3 0.75 0  1.216228490499689 0.8069757125887627 0  1.965682393638027 0.8065702515463131 0  0.6025408912810675 0.8974591087189325 0  2.494676348647751 0.9946763486477508 0  2.356709259621435 0.5447946099875809 0  0.8599642199210003 0.5226206461323684 0  0.4216394361293908 0.4974105777134379 0  0.375 1.5 0  0 1.125 0  1.875 1.5 0  1.591091407334617 1.058091082812092 0  1.125 1.5 0  1.590810830624645 0.5394732912049653 0  0.9375 1.13479915923725 0  3 0.375 0  3 1.125 0  2.625 1.5 0  1.995245765771775 0.4277948434396763 0  2.145880954246818 1.137688199332401 0  1.227783477957362 0.427141979786574 0  2.705436295205127 0.5625 0  1.268702849688826 1.133996222613609 0  0.3526676910824388 1.147332308917561 0  0.3097907151415997 0.7889144057821572 0  0.903221947180751 0.828141240074398 0  0.6461527570085278 1.190944174645022 0  2.258488242757536 0.8210127920483788 0  2.400058919161888 1.260760484185309 0  2.778889354513028 0.9375 0  2.725079155390203 1.225079155390203 0  1.853608154101008 1.201589046866999 0  2.540576981905353 0.3370046821869876 0  0.7811555507088518 0.2732832036972447 0  1.493222576519009 0.798835058995101 0  1.747409300790817 0.3184283662481822 0  1.459899526511598 0.3067772450698331 0  0.1875 1.5 0  0 0.5625 0  2.521594883841638 0.7403247928378012 0  0.2438476629309629 0.32244155773108 0  3 0.1875 0  2.776470677837637 0.28125 0  2.121241022911138 0.6281701698960991 0  1.728545483402697 0.8581016441191361 0  1.012422318322288 0.3271268474523591 0  2.305755967143385 0.3144626442661202 0  1.30662028105542 0 0  1.6875 1.5 0  1.8265892939935 0.6051726401583923 0  0.5458598773451642 0.2962606377138959 0  0 0.9375 0  1.349377516922966 0.6209336375388498 0  1.079656249611334 0.612728400373996 0  0.7151087041654347 0.6989529576230681 0  2.0625 1.5 0  1.59375 1.288981971791887 0  2.085107439753329 0.2191742438537923 0  0.6402689932842839 0.4934943541428904 0  1.228474271256239 0.2064231070567615 0  1.3125 1.5 0  1.06968030723948 0.9647793670181679 0  0.2113350105157037 0.5332932754427466 0  0 1.3125 0  0.5051540211699285 0.7110632261327643 0  0.4775171365050886 1.316467280173536 0  1.967112413780365 1.020384154410382 0  0.8191736043349165 1.304781661824189 0  1.103455205015878 1.280328263155604 0  0.7649318329201844 1.023310716596371 0  0.2120544860962804 0.9823800432730223 0  1.359100570345391 0.9517705003379791 0  0.1711043107784345 1.21875 0  3 1.3125 0  2.8125 1.5 0  2.714178691455841 0.7554813872281284 0  2.217815962767571 1.313132398873298 0  2.020480176543968 1.307095379623413 0  2.29875620117699 1.013690599387144 0  0.3848285295772316 0.1937040883803935 0  0.9375 1.5 0  3 0.9375 0  2.4375 1.5 0  3 0.5625 0  0 0.1875 0  0.5625 1.5 0  2.835 0 0  1.386383673099448 1.305536509588035 0  1.773513842966063 1.0362399691084 0  2.179843036592861 0.4515211056338026 0  0.4134910794700652 0.9582824971065591 0  2.107214813096467 0.9125353945687058 0  1.916698009609654 0.2702971158297667 0  2.533006985360663 0.5155509623987015 0  2.838574938309606 0.4465309273225452 0  0.3016597101560133 1.338635596991575 0  1.641573393474498 0.7066136805426366 0  2.855238878880983 0.65625 0  1.398074618385877 0.1459865472102536 0  1.756539173374812 1.342993235461221 0  2.434593137832078 0.2067018044975929 0  1.434366740555482 0.4743139981449843 0  1.440742946818836 1.142108619191562 0  0.549043549720087 1.055391704395 0  2.571565919072277 1.32487216700893 0  2.535776521770127 1.159155922815097 0  2.652193336606067 1.04269083214613 0  0.660031172970541 1.35825582857438 0  2.607645482283307 0.8780318994093907 0  1.09590027081365 1.121554905778777 0  0.1474979543625655 0.8283466240195498 0  1.056776372361757 0.7739494406659941 0  0.3647560414155882 0.6427945145874604 0  1.699724067482516 1.17405657891935 0  0.913786173488833 0.9822051271795349 0  0.9283491691592597 0.66876089182342 0  0.7498959802087029 0.8498501951910959 0  0.3951228082283652 0.3465404522808934 0  1.23887612906836 1.360760366473919 0  0.1206420558503055 0.65625 0  1.735537276557186 0.4760109437618505 0  1.799297742536812 0.1791526413061006 0  1.970987958006469 0.6541756362249113 0  1.080810552147559 0.461742062484039 0  2.268149337929528 0.6688757993926466 0  2.413602460817152 0.8574959373397593 0  2.833998248858927 1.096635576389 0  2.71875 1.378451438260757 0  2.001906612723158 1.162230131308666 0  2.859452984352005 0.8083820929207302 0  2.688478120768856 0.4086214703657035 0  1.214106348747711 0.9519545202622776 0  2.850368184690094 1.307066142740315 0  1.864893983840636 0.9141560734025058 0  1.60661446108863 0.2395589708587393 0  1.61163060570479 0.3901968276506504 0  2.771867619212225 0.1335769833684914 0  0.7969119039620236 1.163109784140262 0  0.9599416701963486 1.276596315583475 0  2.103624150445193 0.7698297553089299 0  2.279721363034605 1.185280797873663 0  2.34375 1.392122382816539 0  0.1382307077648764 1.361769292235123 0  0.1426478344893104 0.2175212356047023 0  2.406413880432258 1.104106228251116 0  2.414971181397263 0.4111042519521358 0  2.637277274673136 0.2192348292007474 0  1.353600469573883 0.7646239317376279 0  1.494012125944227 0.651091825511382 0  1.590274899157226 0.9102986199774393 0  1.028633500752755 1.396325660524358 0  1.829615743479497 0.7518128394998403 0  1.861059000344659 0.3963812297683985 0  0.510900777690535 1.185277566959035 0  1.213080286311768 0.6640546084318578 0  0.79 0 0  0.8167897395818556 0.1376517357725223 0  0.9319739747594649 0.2144569310211157 0  1.889188139713804 1.330032757791382 0  0.655714683266079 0.2049689967103183 0  2.09162028105542 0 0  0.1359367774292784 0.4137345801986589 0  0.4380798275211911 0.8267965724704243 0  2.40400705830434 0.6721965963037969 0  0.3027633520173528 0.4394586980387968 0  0.8782788855287165 0.379708545377904 0  0.7595213470930909 0.4371189613680841 0  1.317967779309324 0.3170637160852436 0  0.6053759621699666 0.6225641226781395 0  0.6530309552265516 0.3661735489900947 0  2.594089294631991 0.631328821944253 0  0 1.03125 0  0.1304283746114646 1.089970844689444 0  0.4071107582724932 0 0  1.469526282978338 1.017083854458662 0  1.088959023533499 0.2104112015424126 0  1.161808378403757 0.3165749773273478 0  2.172966779463329 0.3188379172988492 0  2.216343768168092 0.1920401700474863 0  3 0.09375 0  1.905024675365066 0.5108806275986008 0  1.702014103004408 0.5963171944847371 0  0.2428042557945101 0.6514309613450368 0  3 1.40625 0  0.262372466757009 0.191725613649506 0  2.116791485436391 1.387145016777417 0  1.96875 1.5 0  2.885528053432104 0.3345800153572822 0  2.875601419873791 0.2042517854891826 0  2.298911783255236 0.4400662366556407 0  2.459247322083259 1.363881377923602 0  0.9735587139454543 0.5585353431007029 0  1.176315140569268 0.5379697839544898 0  2.0296370010214 0.5459700999805513 0  0.4987416453488727 0.4060939323248423 0  0.5397511702990104 0.1771676763212877 0  3 1.21875 0  2.238710633113112 0.5542203056099733 0  1.19831014052771 0 0  1.583962270593198 1.173633921912192 0  1.650563144166832 1.390075718520202 0  1.496025571730155 1.371899864460592 0  3 1.03125 0  2.887481932992674 0.9890041589451042 0  0.247836885460272 1.094286258989912 0  0.4719220056590702 0.6009044603312741 0  1.97565550452845 0.1615660574331665 0  2.131135530378305 0.1108580974478677 0  1.318642333542132 0.5051755928544708 0  1.217460132329928 1.242599824876711 0  1.511891312109549 0.1714963794002952 0  2.174601400318987 1.01685942781215 0  0.9082882406313817 1.384236564302014 0  0.6140422604397168 0.7728109899968187 0  0.8289359680247524 0.7347587321432018 0  0.741509926624258 0.5729763888559004 0  2.058356323822746 0.3313153147701495 0  0.4534336320756143 0.1034622594748756 0  1.40625 1.5 0  1.689084537897351 0.9628079283127213 0  1.156270839633873 0.1228556218721798 0  1.29033806179015 0.1118395069726669 0  1.460859151915469 0.9057320169622244 0  2.326558662668462 0.1831424028173474 0  0.9693052477371982 0.4460054238200853 0  0.6625304018229865 1.076650755704414 0  1.41493042158313 0 0  0.4485426513928407 1.096421738127594 0  0.2454589766548061 0.8778352103982039 0  0.1115239912906509 0.9339683416032414 0  1.134782462834443 0.8782884736059876 0  0.9999448991609674 1.04695529392896 0  0.9835215815673453 0.9000292002687431 0  2.53125 1.5 0  0.3175564878698739 1.010319294269645 0  1.971944763694389 0.9134401013848152 0  2.06
[...]
<PointData  Tensors="f_1138"> 
<DataArray  type="Float64"  Name="f_1138"  NumberOfComponents="9" format="ascii">-2.8364167788268322e+00 -2.1874137098775241e+00 0.0000000000000000e+00 -2.1874137098775241e+00 -1.9570997613621074e+01 0.0000000000000000e+00 0.0000000000000000e+00 0.0000000000000000e+00 0.0000000000000000e+00  3.2137025408244490e+01 3.5135027734447406e+00 0.0000000000000000e+00 3.5135027734447406e+00 3.5727438684254430e+01 0.0000000000000000e+00 0.0000000000000000e+00 0.0000000000000000e+00 0.0000000000000000e+00  4.7949454204473206e+01 -1.0684965913972036e+01 0.0000000000000000e+00 -1.0684965913972036e+01 1.5150463183620303e+01 0.0000000000000000e+00 0.0000000000000000e+00 0.0000000000000000e+00 0.0000000000000000e+00  8.9193106375442198e+01 2.0591438594835047e+01 0.0000000000000000e+00 2.0591438594835047e+01 -4.0071142976383683e+01 0.0000000000000000e+00 0.0000000000000000e+00 0.0000000000000000e+00 0.0000000000000000e+00  9.6835492747866184e+01 9.9945290118805623e+00 0.0000000000000000e+00 9.9945290118805623e+00 -5.3219607761578700e+01 0.0000000000000000e+00 0.0000000000000000e+00 0.0000000000000000e+00 0.0000000000000000e+00  3.4327874120264774e+01 5.7479456701192902e+01 0.0000000000000000e+00 5.7479456701192902e+01 2.8946047262053106e+01 0.0000000000000000e+00 0.0000000000000000e+00 0.0000000000000000e+00 0.0000000000000000e+00  6.3306220622274566e+01 5.2170732364381657e+01 0.0000000000000000e+00 5.2170732364381657e+01 -7.3657044682737007e+00 0.0000000000000000e+00 0.0000000000000000e+00 0.0000000000000000e+00 0.0000000000000000e+00  1.4491760428289520e+01 2.8178842812601609e+01 0.0000000000000000e+00 2.8178842812601609e+01 3.9549154324693312e+01 0.0000000000000000e+00 0.0000000000000000e+00 0.0000000000000000e+00 0.0000000000000000e+00  2.0687710633652401e+01 -4.7356446274370727e+00 0.0000000000000000e+00 -4.7356446274370727e+00 3.9555746840128990e+01 0.0000000000000000e+00 0.0000000000000000e+00 0.0000000000000000e+00 0.0000000000000000e+00  1.8992842025307649e+01 5.9927278104102233e-01 0.0000000000000000e+00 5.9927278104102233e-01 3.1543053711287300e+01 0.0000000000000000e+00 0.0000000000000000e+00 0.0000000000000000e+00 0.0000000000000000e+00  -6.5086985400212441e+01 -4.1646841813684624e+01 0.0000000000000000e+00 -4.1646841813684624e+01 9.5292373480268608e+01 0.0000000000000000e+00 0.0000000000000000e+00 0.0000000000000000e+00 0.0000000000000000e+00  -7.8878554413982769e+01 1.7087669032234288e+01 0.0000000000000000e+00 1.7087669032234288e+01 1.2655771001211554e+02 0.0000000000000000e+00 0.0000000000000000e+00 0.0000000000000000e+00 0.0000000000000000e+00  -6.1030779137552580e+00 -9.0697843287551478e+00 0.0000000000000000e+00 -9.0697843287551478e+00 8.1621085761774680e+01 0.0000000000000000e+00 0.0000000000000000e+00 0.0000000000000000e+00 0.0000000000000000e+00  -8.9690025591015271e+01 1.8128878413614327e+01 0.0000000000000000e+00 1.8128878413614327e+01 1.2937392796522192e+02 0.0000000000000000e+00 0.0000000000000000e+00 0.0000000000000000e+00 0.0000000000000000e+00  2.8881123290625354e+01 8.7576785566792346e+00 0.0000000000000000e+00 8.7576785566792346e+00 3.2420750790816463e+01 0.0000000000000000e+00 0.0000000000000000e+00 0.0000000000000000e+00 0.0000000000000000e+00  1.7503515323369051e+01 -1.3681499059112348e+01 0.0000000000000000e+00 -1.3681499059112348e+01 4.7797943795477217e+01 0.0000000000000000e+00 0.0000000000000000e+00 0.0000000000000000e+00 0.0000000000000000e+00  -2.2878872232888742e+01 -4.3251057476715026e+01 0.0000000000000000e+00 -4.3251057476715026e+01 7.0195868892924622e+01 0.0000000000000000e+00 0.0000000000000000e+00 0.0000000000000000e+00 0.0000000000000000e+00  2.1205782782871943e+01 -4.5130514618740797e+01 0.0000000000000000e+00 -4.5130514618740797e+01 1.8423591766792288e+01 0.0000000000000000e+00 0.0000000000000000e+00 0.0000000000000000e+00 0.0000000000000000e+00  3.4640390816097053e+01 -6.5137522638067594e+01 0.0000000000000000e+00 -6.5137522638067594e+01 8.6438523052727423e-01 0.0000000000000000e+00 0.0000000000000000e+00 0.0000000000000000e+00 0.0000000000000000e+00  8.1787499888443250e+01 7.7164086187065886e+00 0.0000000000000000e+00 7.7164086187065886e+00 -3.9635146321219857e+01 0.0000000000000000e+00 0.0000000000000000e+00 0.0000000000000000e+00 0.0000000000000000e+00  1.2563010249519567e+02 -4.0169320363218645e+01 0.0000000000000000e+00 -4.0169320363218645e+01 -8.9629109794525817e+01 0.0000000000000000e+00 0.0000000000000000e+00 0.0000000000000000e+00 0.0000000000000000e+00  3.3277741458039799e+01 4.7925697749910556e+00 0.0000000000000000e+00 4.7925697749910556e+00 1.2640150487497252e+01 0.0000000000000000e+00 0.0000000000000000e+00 0.0000000000000000e+00 0.0000000000000000e+00  1.1126417606336656e+01 5.6072225681164145e+00 0.0000000000000000e+00 5.6072225681164145e+00 2.8708818002703428e+01 0.0000000000000000e+00 0.0000000000000000e+00 0.0000000000000000e+00 0.0000000000000000e+00  -6.2809595759055012e+00 -1.6798749423150927e+01 0.0000000000000000e+00 -1.6798749423150927e+01 5.1961289720196497e+01 0.0000000000000000e+00 0.0000000000000000e+00 0.0000000000000000e+00 0.0000000000000000e+00  2.3689296572768733e+01 -3.0209588801382480e+01 0.0000000000000000e+00 -3.0209588801382480e+01 2.0991637543785565e+01 0.0000000000000000e+00 0.0000000000000000e+00 0.0000000000000000e+00 0.0000000000000000e+00  2.3130459453441386e+01 -6.5499241838048832e+01 0.0000000000000000e+00 -6.5499241838048832e+01 3.7378312006135817e+00 0.0000000000000000e+00 0.0000000000000000e+00 0.0000000000000000e+00 0.0000000000000000e+00  8.2390177268639320e+01 -2.4164253108904322e+01 0.0000000000000000e+00 -2.4164253108904319e+01 -3.6195262013724744e+01 0.0000000000000000e+00 0.0000000000000000e+00 0.0000000000000000e+00 0.0000000000000000e+00  1.1051026186309321e+02 -2.3250988154267322e+01 0.0000000000000000e+00 -2.3250988154267322e+01 -8.2521629460644220e+01 0.0000000000000000e+00 0.0000000000000000e+00 0.0000000000000000e+00 0.0000000000000000e+00  6.3659707663887808e+01 1.8305359726020232e+01 0.0000000000000000e+00 1.8305359726020232e+01 -1.7918348779043928e+01 0.0000000000000000e+00 0.0000000000000000e+00 0.0000000000000000e+00 0.0000000000000000e+00  2.6057941312708476e+01 -6.4168153778386305e-01 0.0000000000000000e+00 -6.4168153778386305e-01 1.0626224624829920e+01 0.0000000000000000e+00 0.0000000000000000e+00 0.0000000000000000e+00 0.0000000000000000e+00  5.0424054499403418e+01 -1.7919231397127717e+01 0.0000000000000000e+00 -1.7919231397127717e+01 -9.9902161447323612e-01 0.0000000000000000e+00 0.0000000000000000e+00 0.0000000000000000e+00 0.0000000000000000e+00  3.3353979210916968e+01 -7.7958931593463703e+01 0.0000000000000000e+00 -7.7958931593463703e+01 9.1686939508206748e+00 0.0000000000000000e+00 0.0000000000000000e+00 0.0000000000000000e+00 0.0000000000000000e+00  6.2625632187623822e+01 -2.3384470424868905e+01 0.0000000000000000e+00 -2.3384470424868905e+01 -2.8666812860790362e+01 0.0000000000000000e+00 0.0000000000000000e+00 0.0000000000000000e+00 0.0000000000000000e+00  4.9387006838461382e+01 6.7745903227250004e+00 0.0000000000000000e+00 6.7745903227250004e+00 -1.7113671757054192e+01 0.0000000000000000e+00 0.0000000000000000e+00 0.0000000000000000e+00 0.0000000000000000e+00  1.5880251289215868e+01 -1.4499893496581966e+00 0.0000000000000000e+00 -1.4499893496581966e+00 9.8732689619787983e+00 0.0000000000000000e+00 0.0000000000000000e+00 0.0000000000000000e+00 0.0000000000000000e+00  8.9526014060900181e+01 2.5613386365010324e+01 0.0000000000000000e+00 2.5613386365010324e+01 -3.6783232127134632e+01 0.0000000000000000e+00 0.0000000000000000e+00 0.0000000000000000e+00 0.0000000000000000e+00  8.9509505053153944e+01 -1.1269006549708969e+01 0.0000000000000000e+00 -1.1269006549708969e+01 -7.5625111584232314e+01 0.0000000000000000e+00 0.0000000000000000e+00 0.0000000000000000e+00 0.0000000000000000e+00  3.6414895730964417e+01 1.3650601114956002e+01 0.0000000000000000e+00 1.3650601114956002e+01 -7.6908876782047830e+00 0.0000000000000000e+00 0.0000000000000000e+00 0.0000000000000000e+00 0.0000000000000000e+00  9.1777625802524199e+00 2.5640044309453227e+01 0.0000000000000000e+00 2.5640044309453227e+01 2.3017143664596279e+01 0.0000000000000000e+00 0.0000000000000000e+00 0.0000000000000000e+00 0.0000000000000000e+00  -4.2030298647030314e+01 4.3534040787138238e+01 0.0000000000000000e+00 4.3534040787138238e+01 6.9928862088298814e+01 0.0000000000000000e+00 0.0000000000000000e+00 0.0000000000000000e+00 0.0000000000000000e+00  3.8842676589592311e+00 -9.4642081822155677e-01 0.0000000000000000e+00 -9.4642081822155577e-01 3.1628217405643781e+01 0.0000000000000000e+00 0.0000000000000000e+00 0.0000000000000000e+00 0.0000000000000000e+00  1.9339331152075378e+01 -4.9776238812799303e+00 0.0000000000000000e+00 -4.9776238812799303e+00 4.3961796166488707e+00 0.0000000000000000e+00 0.0000000000000000e+00 0.0000000000000000e+00 0.0000000000000000e+00  1.0537891892789945e+02 2.1458523411974781e+01 0.0000000000000000e+00 2.1458523411974781e+01 -5.4858922742996612e+01 0.0000000000000000e+00 0.0000000000000000e+00 0.0000000000000000e+00 0.0000000000000000e+00  1.0214714682967831e+02 -2.1617418455318077e+01 0.0000000000000000e+00 -2.1617418455318077e+01 -8.3353341096496052e+01 0.0000000000000000e+00 0.0000000000000000e+00 0.0000000000000000e+00 0.0000000000000000e+00  -1.7039584730479837e-01 -1.4213234811784226e+01 0.0000000000000000e+00 -1.4213234811784226e+01 2.2248138706713370e+01 0.0000000000000000e+00 0.0000000000000000e+00 0.0000000000000000e+00 0.0000000000000000e+00  -7.9523166679290100e+01 3.2251709534340854e+01 0.0000000000000000e+00 3.2251709534340854e+01 1.0850385726557823e+02 0.0000000000000000e+00 0.0000000000000000e+00 0.0000000000000000e+00 0.0000000000000000e+00  3.5447812191898227e+00 -5.4653553932385988e+00 0.0000000000000000e+00 -5.4653553932385988e+00 7.2516448915917495e+00 0.0000000000000000e+00 0.0000000000000000e+00 0.0000000000000000e+00 0.0000000000000000e+00  -3.7151546830339259e+02 1.4015369404574446e+02 0.0000000000000000e+00 1.4015369404574446e+02 2.3127352265385159e+01 0.0000000000000000e+00 0.0000000000000000e+00 0.0000000000000000e+00 0.0000000000000000e+00  3.8996481336269602e+02 2.3992655219173437e+02 0.0000000000000000e+00 2.3992655219173437e+02 9.3753214485551013e+01 0.0000000000000000e+00 0.0000000000000000e+00 0.0000000000000000e+00 0.0000000000000000e+00  1.3064364631370314e+01 1.0163029292299325e+02 0.0000000000000000e+00 1.0163029292299325e+02 5.3779644189657672e-01 0.0000000000000000e+00 0.0000000000000000e+00 0.0000000000000000e+00 0.0000000000000000e+00  4.4921425991994495e+00 6.5448954973337603e+00 0.0000000000000000e+00 6.5448954973337603e+00 -2.3936260164518163e+01 0.0000000000000000e+00 0.0000000000000000e+00 0.0000000000000000e+00 0.0000000000000000e+00  1.6093556327306509e+01 1.1235738980094692e+02 0.0000000000000000e+00 1.1235738980094692e+02 2.2207738900962664e+01 0.0000000000000000e+00 0.0000000000000000e+00 0.0000000000000000e+00 0.0000000000000000e+00  -2.3281012151493908e+01 2.0346288101047108e+01 0.0000000000000000e+00 2.0346288101047108e+01 2.6298635864141491e+00 0.0000000000000000e+00 0.0000000000000000e+00 0.0000000000000000e+00 0.0000000000000000e+00  -3.1027446582169105e+01 -2.2433258811653403e+01 0.0000000000000000e+00 -2.2433258811653403e+01 -4.2461208487209996e+00 0.0000000000000000e+00 0.0000000000000000e+00 0.0000000000000000e+00 0.0000000000000000e+00  -1.3917224857854622e+01 -2.1002229373956240e+02 0.0000000000000000e+00 -2.1002229373956240e+02 9.1150446708811810e+00 0.0000000000000000e+00 0.0000000000000000e+00 0.0000000000000000e+00 0.0000000000000000e+00  3.8754078299242667e+00 -9.9186454717772818e+00 0.0000000000000000e+00 -9.9186454717772818e+00 3.6958417240309269e+00 0.0000000000000000e+00 0.0000000000000000e+00 0.0000000000000000e+00 0.0000000000000000e+00  1.7433912750757050e+00 9.5861117112092931e+00 0.0000000000000000e+00 9.5861117112092984e+00 1.3621204938623621e+00 0.0000000000000000e+00 0.0000000000000000e+00 0.0000000000000000e+00 0.0000000000000000e+00  3.4848831605558850e+00 -1.6808138051112662e+00 0.0000000000000000e+00 -1.6808138051112662e+00 3.3961827338575241e+00 0.0000000000000000e+00 0.0000000000000000e+00 0.0000000000000000e+00 0.0000000000000000e+00  -2.6534412437794659e+00 -2.6236438849552719e+01 0.0000000000000000e+00 -2.6236438849552719e+01 -2.7810244947429741e+00 0.0000000000000000e+00 0.0000000000000000e+00 0.0000000000000000e+00 0.0000000000000000e+00  4.9684595376653640e+00 2.3891356881013841e+01 0.0000000000000000e+00 2.3891356881013841e+01 5.1596135958571914e+00 0.0000000000000000e+00 0.0000000000000000e+00 0.0000000000000000e+00 0.0000000000000000e+00  1.1971896711149924e+01 2.2192778595668905e+01 0.0000000000000000e+00 2.2192778595668905e+01 1.1958891957630881e+01 0.0000000000000000e+00 0.0000000000000000e+00 0.0000000000000000e+00 0.0000000000000000e+00  1.4382869937251989e+01 -1.6894900690071026e+01 0.0000000000000000e+00 -1.6894900690071026e+01 1.3987142073998994e+01 0.0000000000000000e+00 0.0000000000000000e+00 0.0000000000000000e+00 0.0000000000000000e+00  -9.3653673616595157e+00 -9.5938617445261102e+01 0.0000000000000000e+00 -9.5938617445261102e+01 -9.5817521026546313e+00 0.0000000000000000e+00 0.0000000000000000e+00 0.0000000000000000e+00 0.0000000000000000e+00  -4.3147105289758052e+00 1.0797876437322688e+02 0.0000000000000000e+00 1.0797876437322688e+02 1.9857890421695537e+00 0.0000000000000000e+00 0.0000000000000000e+00 0.0000000000000000e+00 0.0000000000000000e+00  -2.9412950311166366e+01 -1.0832320925161547e+02 0.0000000000000000e+00 -1.0832320925161547e+02 -7.2440905402146534e+00 0.0000000000000000e+00 0.0000000000000000e+00 0.0000000000000000e+00 0.0000000000000000e+00  -3.1265456312295128e+00 -2.7646813912449577e+01 0.0000000000000000e+00 -2.7646813912449577e+01 -3.6257801386453958e+00 0.0000000000000000e+00 0.0000000000000000e+00 0.0000000000000000e+00 0.0000000000000000e+00  -2.9576919669943504e+01 1.1715860910790686e+02 0.0000000000000000e+00 1.1715860910790686e+02 -1.1019102344221501e+01 0.0000000000000000e+00 0.0000000000000000e+00 0.0000000000000000e+00 0.0000000000000000e+00  8.7489618380698264e+00 -2.7366750096006065e+01 0.0000000000000000e+00 -2.7366750096006065e+01 9.1386642522169073e+00 0.0000000000000000e+00 0.0000000000000000e+00 0.0000000000000000e+00 0.0000000000000000e+00  -3.3782836981583872e+00 -2.1077734003096388e+01 0.0000000000000000e+00 -2.1077734003096388e+01 -3.7107408977222907e+00 0.0000000000000000e+00 0.0000000000000000e+00 0.0000000000000000e+00 0.0000000000000000e+00  1.2357838302001782e+02 -9.8713914866632905e+01 0.0000000000000000e+00 -9.8713914866632905e+01 9.9832373366525538e+00 0.0000000000000000e+00 0.0000000000000000e+00 0.0000000000000000e+00 0.0000000000000000e+00  -2.6603427755418755e+02 -3.9532134858197583e+02 0.0000000000000000e+00 -3.9532134858197583e+02 -2.3975864318406167e+01 0.0000000000000000e+00 0.0000000000000000e+00 0.0000000000000000e+00 0.0000000000000000e+00  -1.4682804649631708e+01 4.9381821516628548e+01 0.0000000000000000e+00 4.9381821516628548e+01 -1.3053430848387137e+01 0.0000000000000000e+00 0.0000000000000000e+00 0.0000000000000000e+00 0.0000000000000000e+00  9.3902609214839252e+00 2.5170293134623680e+01 0.0000000000000000e+00 2.5170293134623680e+01 9.8463495544289064e+00 0.0000000000000000e+00 0.0000000000000000e+00 0.0000000000000000e+00 0.0000000000000000e+00  -4.9770073235014216e+00 -2.2362635806672515e+01 0.0000000000000000e+00 -2.2362635806672518e+01 -6.7638227050247677e+00 0.0000000000000000e+00 0.0000000000000000e+00 0.0000000000000000e+00 0.0000000000000000e+00  1.3061968519240255e+01 -1.5924320511012532e+01 0.0000000000000000e+00 -1.5924320511012532e+01 1.2924121249516945e+01 0.0000000000000000e+00 0.0000000000000000e+00 0.0000000000000000e+00 0.0000000000000000e+00  1.2771991653970283e+00 -2.8160456258481483e+00 0.0000000000000000e+00 -2.8160456258481474e+00 3.3657287382095622e+00 0.0000000000000000e+00 0.0000000000000000e+00 0.0000000000000000e+00 0.0000000000000000e+00  -4.1249584110340942e+00 -2.9609652421217525e+01 0.0000000000000000e+00 -2.9609652421217525e+01 -4.3355646946065720e+00 0.0000000000000000e+00 0.0000000000000000e+00 0.0000000000000000e+00 0.0000000000000000e+00  -2.0999060653535353e+00 -2.6444587260195313e+01 0.0000000000000000e+00 -2.6444587260195313e+01 -2.2021599718672458e+00 0.0000000000000000e+00 0.0000000000000000e+00 0.0000000000000000e+00 0.0000000000000000e+00  7.2559766147165972e+00 -5.8351544243109110e+00 0.0000000000000000e+00 -5.8351544243109110e+00 6.9886227593689556e+00 0.0000000000000000e+00 0.0000000000000000e+00 0.0000000000000000e+00 0.0000000000000000e+00  4.3388557175234324e+00 -1.6144422012625554e+00 0.0000000000000000e+00 -1.6144422012625554e+00 4.0648756583455041e+00 0.0000000000000000e+00 0.0000000000000000e+00 0.0000000000000000e+00 0.0000000000000000e+00  -3.9310031539321302e+00 -2.4452064500683811e+01 0.0000000000000000e+00 -2.4452064500683811e+01 -4.1173354412716936e+00 0.0000000000000000e+00 0.0000000000000000e+00 0.0000000000000000e+00 0.0000000000000000e+00  6.7115364009223932e-01 5.6126777992958559e+00 0.0000000000000000e+00 5.6126777992958559e+00 -1.2707710391764404e-01 0.0000000000000000e+00 0.0000000000000000e+00 0.0000000000000000e+00 0.0000000000000000e+00  -5.3463743740527860e+00 4.2953152356279549e+00 0.0000000000000000e+00 4.2953152356279549e+00 -1.0143017379682956e+01 0.0000000000000000e+00 0.0000000000000000e+00 0.0000000000000000e+00 0.0000000000000000e+00  -2.0493208274407619e+00 -2.5889598802206130e+01 0.0000000000000000e+00 -2.5889598802206130e+01 -1.5333874211389767e-01 0.0000000000000000e+00 0.0000000000000000e+00 0.0000000000000000e+00 0.0000000000000000e+00  -2.5502673346491336e+00 -5.2573668167806940e+00 0.0000000000000000e+00 -5.2573668167806940e+00 -7.3417183215945148e+00 0.0000000000000000e+00 0.0000000000000000e+00 0.0000000000000000e+00 0.0000000000000000e+00  -6.5571283861192136e+00 -2.5864567722976474e+01 0.0000000000000000e+00 -2.5864567722976474e+01 -8.0264524505580255e+00 0.0000000000000000e+00 0.0000000000000000e+00 0.0000000000000000e+00 0.0000000000000000e+00  5.3900883531966270e+00 6.0761288719978368e-01 0.0000000000000000e+00 6.0761288719978368e-01 8.9756870242586384e+00 0.0000000000000000e+00 0.0000000000000000e+00 0.0000000000000000e+00 0.0000000000000000e+00  1.8524706793147761e+01 1.7340351274795871e+01 0.0000000000000000e+00 1.7340351274795871e+01 1.8658786801604489e+01 0.0000000000000000e+00 0.0000000000000000e+00 0.0000000000000000e+00 0.0000000000000000e+00  3.1220000329099582e+00 4.5030955927137395e+00 0.0000000000000000e+00 4.5030955927137395e+00 2.8747583686852356e+00 0.0000000000000000e+00 0.0000000000000000e+00 0.0000000000000000e+00 0.0000000000000000e+00  1.2945460221816536e+01 2.6316776801359985e+01 0.0000000000000000e+00 2.6316776801359985e+01 1.3968062753137454e+01 0.0000000000000000e+00 0.0000000000000000e+00 0.0000000000000000e+00 0.0000000000000000e+00  1.4540751444178781e+01 2.2173176869387351e+01 0.0000000000000000e+00 2.2173176869387351e+01 1.5720098244031679e+01 0.0000000000000000e+00 0.0000000000000000e+00 0.0000000000000000e+00 0.0000000000000000e+00  -3.1196210535533172e+01 7.9318911087741768e+01 0.0000000000000000e+00 7.9318911087741768e+01 7.6592467933605430e+00 0.0000000000000000e+00 0.0000000000000000e+00 0.0000000000000000e+00 0.0000000000000000e+00  1.3269428495741851e+01 1.1081603119957002e+02 0.0000000000000000e+00 1.1081603119957002e+02 1.5463497890126030e+01 0.0000000000000000e+00 0.0000000000000000e+00 0.0000000000000000e+00 0.0000000000000000e+00  7.2450761411862841e-01 -1.4641884452586318e+01 0.0000000000000000e+00 -1.4641884452586318e+01 1.5815524686470717e+00 0.0000000000000000e+00 0.0000000000000000e+00 0.0000000000000000e+00 0.0000000000000000e+00  1.8936316228688248e+01 2.7112425029114586e+01 0.0000000000000000e+00 2.7112425029114586e+01 1.9709708180102918e+01 0.0000000000000000e+00 0.0000000000000000e+00 0.000