<?xml version="1.0"?>
<VTKFile type="UnstructuredGrid"  version="0.1"  >
<UnstructuredGrid>
<Piece  NumberOfPoints="5185" NumberOfCells="10070">
<Points>
<DataArray  type="Float64"  NumberOfComponents="3"  format="ascii">0 1.5 0  0 0 0  0.1232405621108402 0 0  0.1232405621108402 0.02253860454731437 0  0.1476111412843772 0.06045996594834066 0  0.1886148129381372 0.07918571535047463 0  0.2332332010401509 0.07277055962836147 0  0.2673002826264945 0.0432512653964478 0  0.28 0 0  0.5342215165449864 0 0  0.5342215165449864 0.02394141003279682 0  0.5649999999999999 0.06062177826491071 0  0.6121553724366851 0.06893654271085457 0  0.6536231110183285 0.04499513267805775 0  0.6699999999999999 0 0  0.91 0 0  0.9220577136594005 0.04499999999999999 0  0.9550000000000001 0.07794228634059948 0  1 0.09 0  1.045 0.07794228634059946 0  1.077942286340599 0.04499999999999999 0  1.09 0 0  1.52324056211084 0 0  1.52324056211084 0.02253860454731437 0  1.547611141284377 0.06045996594834066 0  1.588614812938137 0.07918571535047463 0  1.633233201040151 0.07277055962836147 0  1.667300282626495 0.0432512653964478 0  1.68 0 0  1.84 0 0  1.857573593128807 0.04242640687119285 0  1.9 0.06 0  1.942426406871193 0.04242640687119285 0  1.96 0 0  2.22324056211084 0 0  2.22324056211084 0.02253860454731437 0  2.247611141284377 0.06045996594834066 0  2.288614812938137 0.07918571535047463 0  2.333233201040151 0.07277055962836147 0  2.367300282626494 0.0432512653964478 0  2.38 0 0  2.534221516544986 0 0  2.534221516544986 0.02394141003279682 0  2.565 0.06062177826491071 0  2.612155372436685 0.06893654271085457 0  2.653623111018328 0.04499513267805775 0  2.67 0 0  3 0 0  3 1.5 0  0 0.75 0  1.5 1.5 0  0 0.375 0  0.75 1.5 0  2.25 1.5 0  3 0.75 0  1.216228490499689 0.8069757125887627 0  1.965682393638027 0.8065702515463131 0  0.6025408912810675 0.8974591087189325 0  2.494676348647751 0.9946763486477508 0  2.356709259621435 0.5447946099875809 0  0.8599642199210003 0.5226206461323684 0  0.4216394361293908 0.4974105777134379 0  0.375 1.5 0  0 1.125 0  1.875 1.5 0  1.591091407334617 1.058091082812092 0  1.125 1.5 0  1.590810830624645 0.5394732912049653 0  0.9375 1.13479915923725 0  3 0.375 0  3 1.125 0  2.625 1.5 0  1.995245765771775 0.4277948434396763 0  2.145880954246818 1.137688199332401 0  1.227783477957362 0.427141979786574 0  2.705436295205127 0.5625 0  1.268702849688826 1.133996222613609 0  0.3526676910824388 1.147332308917561 0  0.3097907151415997 0.7889144057821572 0  0.903221947180751 0.828141240074398 0  0.6461527570085278 1.190944174645022 0  2.258488242757536 0.8210127920483788 0  2.400058919161888 1.260760484185309 0  2.778889354513028 0.9375 0  2.725079155390203 1.225079155390203 0  1.853608154101008 1.201589046866999 0  2.540576981905353 0.3370046821869876 0  0.7811555507088518 0.2732832036972447 0  1.493222576519009 0.798835058995101 0  1.747409300790817 0.3184283662481822 0  1.459899526511598 0.3067772450698331 0  0.1875 1.5 0  0 0.5625 0  2.521594883841638 0.7403247928378012 0  0.2438476629309629 0.32244155773108 0  3 0.1875 0  2.776470677837637 0.28125 0  2.121241022911138 0.6281701698960991 0  1.728545483402697 0.8581016441191361 0  1.012422318322288 0.3271268474523591 0  2.305755967143385 0.3144626442661202 0  1.30662028105542 0 0  1.6875 1.5 0  1.8265892939935 0.6051726401583923 0  0.5458598773451642 0.2962606377138959 0  0 0.9375 0  1.349377516922966 0.6209336375388498 0  1.079656249611334 0.612728400373996 0  0.7151087041654347 0.6989529576230681 0  2.0625 1.5 0  1.59375 1.288981971791887 0  2.085107439753329 0.2191742438537923 0  0.6402689932842839 0.4934943541428904 0  1.228474271256239 0.2064231070567615 0  1.3125 1.5 0  1.06968030723948 0.9647793670181679 0  0.2113350105157037 0.5332932754427466 0  0 1.3125 0  0.5051540211699285 0.7110632261327643 0  0.4775171365050886 1.316467280173536 0  1.967112413780365 1.020384154410382 0  0.8191736043349165 1.304781661824189 0  1.103455205015878 1.280328263155604 0  0.7649318329201844 1.023310716596371 0  0.2120544860962804 0.9823800432730223 0  1.359100570345391 0.9517705003379791 0  0.1711043107784345 1.21875 0  3 1.3125 0  2.8125 1.5 0  2.714178691455841 0.7554813872281284 0  2.217815962767571 1.313132398873298 0  2.020480176543968 1.307095379623413 0  2.29875620117699 1.013690599387144 0  0.3848285295772316 0.1937040883803935 0  0.9375 1.5 0  3 0.9375 0  2.4375 1.5 0  3 0.5625 0  0 0.1875 0  0.5625 1.5 0  2.835 0 0  1.386383673099448 1.305536509588035 0  1.773513842966063 1.0362399691084 0  2.179843036592861 0.4515211056338026 0  0.4134910794700652 0.9582824971065591 0  2.107214813096467 0.9125353945687058 0  1.916698009609654 0.2702971158297667 0  2.533006985360663 0.5155509623987015 0  2.838574938309606 0.4465309273225452 0  0.3016597101560133 1.338635596991575 0  1.641573393474498 0.7066136805426366 0  2.855238878880983 0.65625 0  1.398074618385877 0.1459865472102536 0  1.756539173374812 1.342993235461221 0  2.434593137832078 0.2067018044975929 0  1.434366740555482 0.4743139981449843 0  1.440742946818836 1.142108619191562 0  0.549043549720087 1.055391704395 0  2.571565919072277 1.32487216700893 0  2.535776521770127 1.159155922815097 0  2.652193336606067 1.04269083214613 0  0.660031172970541 1.35825582857438 0  2.607645482283307 0.8780318994093907 0  1.09590027081365 1.121554905778777 0  0.1474979543625655 0.8283466240195498 0  1.056776372361757 0.7739494406659941 0  0.3647560414155882 0.6427945145874604 0  1.699724067482516 1.17405657891935 0  0.913786173488833 0.9822051271795349 0  0.9283491691592597 0.66876089182342 0  0.7498959802087029 0.8498501951910959 0  0.3951228082283652 0.3465404522808934 0  1.23887612906836 1.360760366473919 0  0.1206420558503055 0.65625 0  1.735537276557186 0.4760109437618505 0  1.799297742536812 0.1791526413061006 0  1.970987958006469 0.6541756362249113 0  1.080810552147559 0.461742062484039 0  2.268149337929528 0.6688757993926466 0  2.413602460817152 0.8574959373397593 0  2.833998248858927 1.096635576389 0  2.71875 1.378451438260757 0  2.001906612723158 1.162230131308666 0  2.859452984352005 0.8083820929207302 0  2.688478120768856 0.4086214703657035 0  1.214106348747711 0.9519545202622776 0  2.850368184690094 1.307066142740315 0  1.864893983840636 0.9141560734025058 0  1.60661446108863 0.2395589708587393 0  1.61163060570479 0.3901968276506504 0  2.771867619212225 0.1335769833684914 0  0.7969119039620236 1.163109784140262 0  0.9599416701963486 1.276596315583475 0  2.103624150445193 0.7698297553089299 0  2.279721363034605 1.185280797873663 0  2.34375 1.392122382816539 0  0.1382307077648764 1.361769292235123 0  0.1426478344893104 0.2175212356047023 0  2.406413880432258 1.104106228251116 0  2.414971181397263 0.4111042519521358 0  2.637277274673136 0.2192348292007474 0  1.353600469573883 0.7646239317376279 0  1.494012125944227 0.651091825511382 0  1.590274899157226 0.9102986199774393 0  1.028633500752755 1.396325660524358 0  1.829615743479497 0.7518128394998403 0  1.861059000344659 0.3963812297683985 0  0.510900777690535 1.185277566959035 0  1.213080286311768 0.6640546084318578 0  0.79 0 0  0.8167897395818556 0.1376517357725223 0  0.9319739747594649 0.2144569310211157 0  1.889188139713804 1.330032757791382 0  0.655714683266079 0.2049689967103183 0  2.09162028105542 0 0  0.1359367774292784 0.4137345801986589 0  0.4380798275211911 0.8267965724704243 0  2.40400705830434 0.6721965963037969 0  0.3027633520173528 0.4394586980387968 0  0.8782788855287165 0.379708545377904 0  0.7595213470930909 0.4371189613680841 0  1.317967779309324 0.3170637160852436 0  0.6053759621699666 0.6225641226781395 0  0.6530309552265516 0.3661735489900947 0  2.594089294631991 0.631328821944253 0  0 1.03125 0  0.1304283746114646 1.089970844689444 0  0.4071107582724932 0 0  1.469526282978338 1.017083854458662 0  1.088959023533499 0.2104112015424126 0  1.161808378403757 0.3165749773273478 0  2.172966779463329 0.3188379172988492 0  2.216343768168092 0.1920401700474863 0  3 0.09375 0  1.905024675365066 0.5108806275986008 0  1.702014103004408 0.5963171944847371 0  0.2428042557945101 0.6514309613450368 0  3 1.40625 0  0.262372466757009 0.191725613649506 0  2.116791485436391 1.387145016777417 0  1.96875 1.5 0  2.885528053432104 0.3345800153572822 0  2.875601419873791 0.2042517854891826 0  2.298911783255236 0.4400662366556407 0  2.459247322083259 1.363881377923602 0  0.9735587139454543 0.5585353431007029 0  1.176315140569268 0.5379697839544898 0  2.0296370010214 0.5459700999805513 0  0.4987416453488727 0.4060939323248423 0  0.5397511702990104 0.1771676763212877 0  3 1.21875 0  2.238710633113112 0.5542203056099733 0  1.19831014052771 0 0  1.583962270593198 1.173633921912192 0  1.650563144166832 1.390075718520202 0  1.496025571730155 1.371899864460592 0  3 1.03125 0  2.887481932992674 0.9890041589451042 0  0.247836885460272 1.094286258989912 0  0.4719220056590702 0.6009044603312741 0  1.97565550452845 0.1615660574331665 0  2.131135530378305 0.1108580974478677 0  1.318642333542132 0.5051755928544708 0  1.217460132329928 1.242599824876711 0  1.511891312109549 0.1714963794002952 0  2.174601400318987 1.01685942781215 0  0.9082882406313817 1.384236564302014 0  0.6140422604397168 0.7728109899968187 0  0.8289359680247524 0.7347587321432018 0  0.741509926624258 0.5729763888559004 0  2.058356323822746 0.3313153147701495 0  0.4534336320756143 0.1034622594748756 0  1.40625 1.5 0  1.689084537897351 0.9628079283127213 0  1.156270839633873 0.1228556218721798 0  1.29033806179015 0.1118395069726669 0  1.460859151915469 0.9057320169622244 0  2.326558662668462 0.1831424028173474 0  0.9693052477371982 0.4460054238200853 0  0.6625304018229865 1.076650755704414 0  1.41493042158313 0 0  0.4485426513928407 1.096421738127594 0  0.2454589766548061 0.8778352103982039 0  0.1115239912906509 0.9339683416032414 0  1.134782462834443 0.8782884736059876 0  0.9999448991609674 1.04695529392896 0  0.9835215815673453 0.9000292002687431 0  2.53125 1.5 0  0.3175564878698739 1.010319294269645 0  1.971944763694389 0.9134401013848152 0  2.06
[...]
<PointData  Tensors="f_606"> 
<DataArray  type="Float64"  Name="f_606"  NumberOfComponents="9" format="ascii">-8.7945758905423581e+00 1.0174275358064839e+00 0.0000000000000000e+00 1.0174275358064839e+00 -1.7005284377254934e+01 0.0000000000000000e+00 0.0000000000000000e+00 0.0000000000000000e+00 0.0000000000000000e+00  3.4650858736614055e+01 2.4417875803683509e+00 0.0000000000000000e+00 2.4417875803683509e+00 3.1367533530507856e+01 0.0000000000000000e+00 0.0000000000000000e+00 0.0000000000000000e+00 0.0000000000000000e+00  3.3253022465408982e+01 -5.3259597801567748e+00 0.0000000000000000e+00 -5.3259597801567748e+00 2.9547009287425997e+01 0.0000000000000000e+00 0.0000000000000000e+00 0.0000000000000000e+00 0.0000000000000000e+00  6.7844521020331371e+01 1.8046999377445015e+01 0.0000000000000000e+00 1.8046999377445015e+01 -1.3490297557636492e+01 0.0000000000000000e+00 0.0000000000000000e+00 0.0000000000000000e+00 0.0000000000000000e+00  6.9167361284649147e+01 1.3758527060259567e+01 0.0000000000000000e+00 1.3758527060259567e+01 -1.6357684445458297e+01 0.0000000000000000e+00 0.0000000000000000e+00 0.0000000000000000e+00 0.0000000000000000e+00  3.3754101270157186e+01 3.5094232673631062e+01 0.0000000000000000e+00 3.5094232673631062e+01 2.6628507635807711e+01 0.0000000000000000e+00 0.0000000000000000e+00 0.0000000000000000e+00 0.0000000000000000e+00  5.3123661402908404e+01 3.4184240680779915e+01 0.0000000000000000e+00 3.4184240680779915e+01 -8.9215218531472862e-01 0.0000000000000000e+00 0.0000000000000000e+00 0.0000000000000000e+00 0.0000000000000000e+00  2.3656655994014208e+01 1.7708692318298979e+01 0.0000000000000000e+00 1.7708692318298979e+01 3.0989670993512206e+01 0.0000000000000000e+00 0.0000000000000000e+00 0.0000000000000000e+00 0.0000000000000000e+00  2.4154139330215195e+01 -2.6403395536929435e+00 0.0000000000000000e+00 -2.6403395536929435e+00 3.7522850559777503e+01 0.0000000000000000e+00 0.0000000000000000e+00 0.0000000000000000e+00 0.0000000000000000e+00  2.7253686002439821e+01 -1.6991889360506021e+00 0.0000000000000000e+00 -1.6991889360506021e+00 2.6851617845445372e+01 0.0000000000000000e+00 0.0000000000000000e+00 0.0000000000000000e+00 0.0000000000000000e+00  -3.0385113531029670e+01 -2.7218635809976373e+01 0.0000000000000000e+00 -2.7218635809976373e+01 6.6876052583202181e+01 0.0000000000000000e+00 0.0000000000000000e+00 0.0000000000000000e+00 0.0000000000000000e+00  -2.7239650959332582e+01 1.6010852394211636e+01 0.0000000000000000e+00 1.6010852394211636e+01 7.7986135961396982e+01 0.0000000000000000e+00 0.0000000000000000e+00 0.0000000000000000e+00 0.0000000000000000e+00  1.6497181347309520e+00 -6.6874724313346929e+00 0.0000000000000000e+00 -6.6874724313346929e+00 6.3479020976902198e+01 0.0000000000000000e+00 0.0000000000000000e+00 0.0000000000000000e+00 0.0000000000000000e+00  -4.0672774461389842e+01 2.9382226410054972e+00 0.0000000000000000e+00 2.9382226410054972e+00 8.5061937403761263e+01 0.0000000000000000e+00 0.0000000000000000e+00 0.0000000000000000e+00 0.0000000000000000e+00  3.1995957178284723e+01 7.6612308002992213e+00 0.0000000000000000e+00 7.6612308002992213e+00 2.7590525042813393e+01 0.0000000000000000e+00 0.0000000000000000e+00 0.0000000000000000e+00 0.0000000000000000e+00  1.8905183068363087e+01 -6.3086430742195478e+00 0.0000000000000000e+00 -6.3086430742195478e+00 4.0703511265930885e+01 0.0000000000000000e+00 0.0000000000000000e+00 0.0000000000000000e+00 0.0000000000000000e+00  -3.6495272732323114e+00 -2.0917456468225478e+01 0.0000000000000000e+00 -2.0917456468225478e+01 4.8673374793109815e+01 0.0000000000000000e+00 0.0000000000000000e+00 0.0000000000000000e+00 0.0000000000000000e+00  2.6089438270625354e+01 -2.8671341307670478e+01 0.0000000000000000e+00 -2.8671341307670478e+01 1.6424380870624695e+01 0.0000000000000000e+00 0.0000000000000000e+00 0.0000000000000000e+00 0.0000000000000000e+00  4.0467784928835883e+01 -3.7274067569286288e+01 0.0000000000000000e+00 -3.7274067569286288e+01 5.3177007876669080e+00 0.0000000000000000e+00 0.0000000000000000e+00 0.0000000000000000e+00 0.0000000000000000e+00  5.7458097934216909e+01 1.5104111587294995e+00 0.0000000000000000e+00 1.5104111587294995e+00 -1.3578029874707445e+01 0.0000000000000000e+00 0.0000000000000000e+00 0.0000000000000000e+00 0.0000000000000000e+00  9.2042873528810190e+01 -3.1041518867751783e+01 0.0000000000000000e+00 -3.1041518867751783e+01 -5.1860687002557086e+01 0.0000000000000000e+00 0.0000000000000000e+00 0.0000000000000000e+00 0.0000000000000000e+00  2.4607528430670666e+01 -5.5652757577374423e-02 0.0000000000000000e+00 -5.5652757577374423e-02 2.2940308725663026e+01 0.0000000000000000e+00 0.0000000000000000e+00 0.0000000000000000e+00 0.0000000000000000e+00  1.7882097255247427e+01 3.2960993459786327e+00 0.0000000000000000e+00 3.2960993459786327e+00 2.7729602839185002e+01 0.0000000000000000e+00 0.0000000000000000e+00 0.0000000000000000e+00 0.0000000000000000e+00  1.0114364970806767e+01 -9.3404490000033089e+00 0.0000000000000000e+00 -9.3404490000033089e+00 3.7540969344926594e+01 0.0000000000000000e+00 0.0000000000000000e+00 0.0000000000000000e+00 0.0000000000000000e+00  2.8880146351254865e+01 -1.9424933842938035e+01 0.0000000000000000e+00 -1.9424933842938035e+01 1.7022907262519681e+01 0.0000000000000000e+00 0.0000000000000000e+00 0.0000000000000000e+00 0.0000000000000000e+00  2.9787756818842109e+01 -3.5875474806114987e+01 0.0000000000000000e+00 -3.5875474806114987e+01 6.6569426392375384e+00 0.0000000000000000e+00 0.0000000000000000e+00 0.0000000000000000e+00 0.0000000000000000e+00  5.8466956109031692e+01 -1.8310850192375582e+01 0.0000000000000000e+00 -1.8310850192375582e+01 -1.3881761370853477e+01 0.0000000000000000e+00 0.0000000000000000e+00 0.0000000000000000e+00 0.0000000000000000e+00  7.2220617217927582e+01 -1.9712598091227537e+01 0.0000000000000000e+00 -1.9712598091227537e+01 -4.0089271630573208e+01 0.0000000000000000e+00 0.0000000000000000e+00 0.0000000000000000e+00 0.0000000000000000e+00  5.8709752933719038e+01 9.3268549613934084e+00 0.0000000000000000e+00 9.3268549613934084e+00 -1.6207207837879544e+01 0.0000000000000000e+00 0.0000000000000000e+00 0.0000000000000000e+00 0.0000000000000000e+00  2.8042644155003451e+01 -3.6531029727461856e-01 0.0000000000000000e+00 -3.6531029727461856e-01 1.2171873825967859e+01 0.0000000000000000e+00 0.0000000000000000e+00 0.0000000000000000e+00 0.0000000000000000e+00  4.5526820825071376e+01 -1.0809766910141517e+01 0.0000000000000000e+00 -1.0809766910141517e+01 3.2855613932844343e+00 0.0000000000000000e+00 0.0000000000000000e+00 0.0000000000000000e+00 0.0000000000000000e+00  3.4587210176370021e+01 -4.6516096915754005e+01 0.0000000000000000e+00 -4.6516096915754005e+01 1.0454910011555596e+01 0.0000000000000000e+00 0.0000000000000000e+00 0.0000000000000000e+00 0.0000000000000000e+00  4.1970314429217872e+01 -1.8587370536289480e+01 0.0000000000000000e+00 -1.8587370536289480e+01 -8.5262415813295327e+00 0.0000000000000000e+00 0.0000000000000000e+00 0.0000000000000000e+00 0.0000000000000000e+00  4.7692785249140130e+01 8.6346021100988359e+00 0.0000000000000000e+00 8.6346021100988359e+00 -5.6646975410389704e+00 0.0000000000000000e+00 0.0000000000000000e+00 0.0000000000000000e+00 0.0000000000000000e+00  9.5409508966299637e+00 3.0898600297056236e+00 0.0000000000000000e+00 3.0898600297056236e+00 1.9619833588820452e+01 0.0000000000000000e+00 0.0000000000000000e+00 0.0000000000000000e+00 0.0000000000000000e+00  7.0133568658993539e+01 2.4920944182602963e+01 0.0000000000000000e+00 2.4920944182602963e+01 -1.9757371825562331e+01 0.0000000000000000e+00 0.0000000000000000e+00 0.0000000000000000e+00 0.0000000000000000e+00  6.1514910292566839e+01 -5.1864809082439116e+00 0.0000000000000000e+00 -5.1864809082439116e+00 -3.9386665002268344e+01 0.0000000000000000e+00 0.0000000000000000e+00 0.0000000000000000e+00 0.0000000000000000e+00  3.0054037579063589e+01 5.5097447797068790e+00 0.0000000000000000e+00 5.5097447797068790e+00 -2.6923527875743929e+00 0.0000000000000000e+00 0.0000000000000000e+00 0.0000000000000000e+00 0.0000000000000000e+00  1.4414161542823509e+01 1.9004963895128132e+01 0.0000000000000000e+00 1.9004963895128132e+01 1.1705328176813548e+01 0.0000000000000000e+00 0.0000000000000000e+00 0.0000000000000000e+00 0.0000000000000000e+00  -1.6388865540991290e+01 2.0432361666062189e+01 0.0000000000000000e+00 2.0432361666062189e+01 3.9807341914902295e+01 0.0000000000000000e+00 0.0000000000000000e+00 0.0000000000000000e+00 0.0000000000000000e+00  1.2525285239846884e+01 -6.7632123228886565e-01 0.0000000000000000e+00 -6.7632123228886565e-01 2.4342832588892769e+01 0.0000000000000000e+00 0.0000000000000000e+00 0.0000000000000000e+00 0.0000000000000000e+00  1.0638152922276603e+01 6.8497861261198656e-01 0.0000000000000000e+00 6.8497861261198656e-01 1.5162633222311875e+01 0.0000000000000000e+00 0.0000000000000000e+00 0.0000000000000000e+00 0.0000000000000000e+00  8.4340237503531981e+01 2.0746459139840649e+01 0.0000000000000000e+00 2.0746459139840649e+01 -3.9362393681811362e+01 0.0000000000000000e+00 0.0000000000000000e+00 0.0000000000000000e+00 0.0000000000000000e+00  8.0008131836579793e+01 -1.1482481725278838e+01 0.0000000000000000e+00 -1.1482481725278838e+01 -5.5703847882336838e+01 0.0000000000000000e+00 0.0000000000000000e+00 0.0000000000000000e+00 0.0000000000000000e+00  7.9074885109207136e+00 -8.5708082654406663e+00 0.0000000000000000e+00 -8.5708082654406663e+00 1.2574476293892666e+01 0.0000000000000000e+00 0.0000000000000000e+00 0.0000000000000000e+00 0.0000000000000000e+00  -3.2189804413380685e+01 1.0197101150772168e+01 0.0000000000000000e+00 1.0197101150772168e+01 5.5991822002236468e+01 0.0000000000000000e+00 0.0000000000000000e+00 0.0000000000000000e+00 0.0000000000000000e+00  9.7139648018022058e+00 -2.9137855803677768e+00 0.0000000000000000e+00 -2.9137855803677768e+00 9.7743286764653448e+00 0.0000000000000000e+00 0.0000000000000000e+00 0.0000000000000000e+00 0.0000000000000000e+00  -1.6383685598815856e+02 7.5832749258642906e+01 0.0000000000000000e+00 7.5832749258642906e+01 -6.4637143025313888e+00 0.0000000000000000e+00 0.0000000000000000e+00 0.0000000000000000e+00 0.0000000000000000e+00  2.4784666790873106e+02 1.4278350725907339e+02 0.0000000000000000e+00 1.4278350725907339e+02 4.2247924997244674e+01 0.0000000000000000e+00 0.0000000000000000e+00 0.0000000000000000e+00 0.0000000000000000e+00  1.1966838242101728e+01 6.0461226918614052e+01 0.0000000000000000e+00 6.0461226918614052e+01 4.2860138770514533e+00 0.0000000000000000e+00 0.0000000000000000e+00 0.0000000000000000e+00 0.0000000000000000e+00  5.5672449597263376e-02 3.8408750064425656e+00 0.0000000000000000e+00 3.8408750064425656e+00 -2.2790559064122625e+01 0.0000000000000000e+00 0.0000000000000000e+00 0.0000000000000000e+00 0.0000000000000000e+00  1.7945981597299255e+01 6.8929691680955003e+01 0.0000000000000000e+00 6.8929691680955003e+01 2.2239498554254627e+01 0.0000000000000000e+00 0.0000000000000000e+00 0.0000000000000000e+00 0.0000000000000000e+00  -2.2539911524837585e+01 1.5336478137408513e+01 0.0000000000000000e+00 1.5336478137408513e+01 1.1346988760562586e-01 0.0000000000000000e+00 0.0000000000000000e+00 0.0000000000000000e+00 0.0000000000000000e+00  -2.7652466186212365e+01 -1.2735628991957521e+01 0.0000000000000000e+00 -1.2735628991957521e+01 -5.6300308471411729e+00 0.0000000000000000e+00 0.0000000000000000e+00 0.0000000000000000e+00 0.0000000000000000e+00  -6.9996157460639949e+00 -1.3895235336865866e+02 0.0000000000000000e+00 -1.3895235336865866e+02 1.2640503206845318e+01 0.0000000000000000e+00 0.0000000000000000e+00 0.0000000000000000e+00 0.0000000000000000e+00  4.2737587580549743e+00 -5.0392935175577680e+00 0.0000000000000000e+00 -5.0392935175577680e+00 4.2443057758190275e+00 0.0000000000000000e+00 0.0000000000000000e+00 0.0000000000000000e+00 0.0000000000000000e+00  2.0842466419658190e+00 4.9871216204939106e+00 0.0000000000000000e+00 4.9871216204939106e+00 1.9268804716839731e+00 0.0000000000000000e+00 0.0000000000000000e+00 0.0000000000000000e+00 0.0000000000000000e+00  3.9537046902584438e+00 -8.2301413205295992e-01 0.0000000000000000e+00 -8.2301413205295992e-01 3.9360294022245279e+00 0.0000000000000000e+00 0.0000000000000000e+00 0.0000000000000000e+00 0.0000000000000000e+00  -1.7524388279224525e+00 -1.3062966747614933e+01 0.0000000000000000e+00 -1.3062966747614933e+01 -2.8537341898334123e+00 0.0000000000000000e+00 0.0000000000000000e+00 0.0000000000000000e+00 0.0000000000000000e+00  5.1462599794194004e+00 1.2402731837894212e+01 0.0000000000000000e+00 1.2402731837894212e+01 5.7945471081726785e+00 0.0000000000000000e+00 0.0000000000000000e+00 0.0000000000000000e+00 0.0000000000000000e+00  1.2509576371151535e+01 1.1141786168117230e+01 0.0000000000000000e+00 1.1141786168117230e+01 1.2430995428418047e+01 0.0000000000000000e+00 0.0000000000000000e+00 0.0000000000000000e+00 0.0000000000000000e+00  1.4739723777501142e+01 -8.4049576721113883e+00 0.0000000000000000e+00 -8.4049576721113883e+00 1.4675108662734177e+01 0.0000000000000000e+00 0.0000000000000000e+00 0.0000000000000000e+00 0.0000000000000000e+00  -5.7408143880882729e+00 -5.8201279874766513e+01 0.0000000000000000e+00 -5.8201279874766513e+01 -1.1123868012373229e+01 0.0000000000000000e+00 0.0000000000000000e+00 0.0000000000000000e+00 0.0000000000000000e+00  -3.9362926175170494e+00 6.7181553453698626e+01 0.0000000000000000e+00 6.7181553453698626e+01 3.1382763691089366e+00 0.0000000000000000e+00 0.0000000000000000e+00 0.0000000000000000e+00 0.0000000000000000e+00  -2.3014647461639584e+01 -6.5591386563640810e+01 0.0000000000000000e+00 -6.5591386563640810e+01 -1.0961033750134616e+01 0.0000000000000000e+00 0.0000000000000000e+00 0.0000000000000000e+00 0.0000000000000000e+00  -2.7815186836217509e+00 -1.3996963420352348e+01 0.0000000000000000e+00 -1.3996963420352348e+01 -2.9974705665638108e+00 0.0000000000000000e+00 0.0000000000000000e+00 0.0000000000000000e+00 0.0000000000000000e+00  -2.3023189257234399e+01 7.3294285183313889e+01 0.0000000000000000e+00 7.3294285183313889e+01 -1.1832909026340419e+01 0.0000000000000000e+00 0.0000000000000000e+00 0.0000000000000000e+00 0.0000000000000000e+00  9.3037745973602117e+00 -1.3865746794267423e+01 0.0000000000000000e+00 -1.3865746794267423e+01 9.4647490467240782e+00 0.0000000000000000e+00 0.0000000000000000e+00 0.0000000000000000e+00 0.0000000000000000e+00  -2.9782569225334026e+00 -1.0505391346051404e+01 0.0000000000000000e+00 -1.0505391346051404e+01 -3.0464082282459652e+00 0.0000000000000000e+00 0.0000000000000000e+00 0.0000000000000000e+00 0.0000000000000000e+00  6.9668810891622087e+01 -1.0147443566352194e+02 0.0000000000000000e+00 -1.0147443566352194e+02 -7.6121365394094660e+00 0.0000000000000000e+00 0.0000000000000000e+00 0.0000000000000000e+00 0.0000000000000000e+00  -1.0634467975785793e+02 -1.7816593615509092e+02 0.0000000000000000e+00 -1.7816593615509092e+02 -9.4248123162660047e+00 0.0000000000000000e+00 0.0000000000000000e+00 0.0000000000000000e+00 0.0000000000000000e+00  -9.9284876961213158e+00 2.7998167118586323e+01 0.0000000000000000e+00 2.7998167118586323e+01 -1.3616072160587999e+01 0.0000000000000000e+00 0.0000000000000000e+00 0.0000000000000000e+00 0.0000000000000000e+00  9.7453052004824432e+00 1.2610996485870757e+01 0.0000000000000000e+00 1.2610996485870757e+01 1.0209642619012472e+01 0.0000000000000000e+00 0.0000000000000000e+00 0.0000000000000000e+00 0.0000000000000000e+00  -4.7931491548737641e+00 -1.1598690269394412e+01 0.0000000000000000e+00 -1.1598690269394412e+01 -5.8667559882452895e+00 0.0000000000000000e+00 0.0000000000000000e+00 0.0000000000000000e+00 0.0000000000000000e+00  1.3471126674510099e+01 -8.1983826160353619e+00 0.0000000000000000e+00 -8.1983826160353619e+00 1.3544702477866567e+01 0.0000000000000000e+00 0.0000000000000000e+00 0.0000000000000000e+00 0.0000000000000000e+00  2.1136733018965232e+00 -3.9248705598250316e-01 0.0000000000000000e+00 -3.9248705598250316e-01 2.8648407185370086e+00 0.0000000000000000e+00 0.0000000000000000e+00 0.0000000000000000e+00 0.0000000000000000e+00  -3.8214764837718151e+00 -1.4928224600438206e+01 0.0000000000000000e+00 -1.4928224600438206e+01 -3.8856812070846423e+00 0.0000000000000000e+00 0.0000000000000000e+00 0.0000000000000000e+00 0.0000000000000000e+00  -1.7493142152296848e+00 -1.3299802384956836e+01 0.0000000000000000e+00 -1.3299802384956836e+01 -1.6594553568228638e+00 0.0000000000000000e+00 0.0000000000000000e+00 0.0000000000000000e+00 0.0000000000000000e+00  7.6645855237563154e+00 -3.0125053470715808e+00 0.0000000000000000e+00 -3.0125053470715808e+00 7.5781687508812956e+00 0.0000000000000000e+00 0.0000000000000000e+00 0.0000000000000000e+00 0.0000000000000000e+00  4.7497746564682828e+00 -8.4879701845743349e-01 0.0000000000000000e+00 -8.4879701845743349e-01 4.6913896265374468e+00 0.0000000000000000e+00 0.0000000000000000e+00 0.0000000000000000e+00 0.0000000000000000e+00  -3.5939915590101501e+00 -1.2256310827690927e+01 0.0000000000000000e+00 -1.2256310827690927e+01 -3.5528869310650717e+00 0.0000000000000000e+00 0.0000000000000000e+00 0.0000000000000000e+00 0.0000000000000000e+00  9.1643323377557262e-01 3.0114826496390745e+00 0.0000000000000000e+00 3.0114826496390736e+00 6.5282607828452655e-01 0.0000000000000000e+00 0.0000000000000000e+00 0.0000000000000000e+00 0.0000000000000000e+00  -6.0716145152229313e+00 1.0383663444440094e+00 0.0000000000000000e+00 1.0383663444440097e+00 -8.5032829881082517e+00 0.0000000000000000e+00 0.0000000000000000e+00 0.0000000000000000e+00 0.0000000000000000e+00  -7.4177045106061579e-01 -1.2926598610015187e+01 0.0000000000000000e+00 -1.2926598610015187e+01 -8.7055902648834216e-01 0.0000000000000000e+00 0.0000000000000000e+00 0.0000000000000000e+00 0.0000000000000000e+00  -3.0263490331277105e+00 -5.0203753211935389e+00 0.0000000000000000e+00 -5.0203753211935389e+00 -5.6829097164393252e+00 0.0000000000000000e+00 0.0000000000000000e+00 0.0000000000000000e+00 0.0000000000000000e+00  -6.3754648012707884e+00 -1.3144937181379603e+01 0.0000000000000000e+00 -1.3144937181379603e+01 -7.0729226419917737e+00 0.0000000000000000e+00 0.0000000000000000e+00 0.0000000000000000e+00 0.0000000000000000e+00  6.7436405239361141e+00 -1.1066688077858515e+00 0.0000000000000000e+00 -1.1066688077858515e+00 8.3884206254430413e+00 0.0000000000000000e+00 0.0000000000000000e+00 0.0000000000000000e+00 0.0000000000000000e+00  1.9067873317027587e+01 8.8986710832142961e+00 0.0000000000000000e+00 8.8986710832142943e+00 1.9220955795558112e+01 0.0000000000000000e+00 0.0000000000000000e+00 0.0000000000000000e+00 0.0000000000000000e+00  3.5397600780117826e+00 2.2122742999422327e+00 0.0000000000000000e+00 2.2122742999422327e+00 3.5673802083747006e+00 0.0000000000000000e+00 0.0000000000000000e+00 0.0000000000000000e+00 0.0000000000000000e+00  1.3579657182627324e+01 1.3372583007807636e+01 0.0000000000000000e+00 1.3372583007807636e+01 1.4087046884823250e+01 0.0000000000000000e+00 0.0000000000000000e+00 0.0000000000000000e+00 0.0000000000000000e+00  1.5197802901743955e+01 1.1171024488448520e+01 0.0000000000000000e+00 1.1171024488448520e+01 1.5877956937576700e+01 0.0000000000000000e+00 0.0000000000000000e+00 0.0000000000000000e+00 0.0000000000000000e+00  -2.5921124561510350e+01 5.0933422736795954e+01 0.0000000000000000e+00 5.0933422736795954e+01 6.6799693621587763e-01 0.0000000000000000e+00 0.0000000000000000e+00 0.0000000000000000e+00 0.0000000000000000e+00  1.4253105199697323e+01 6.9001037015769825e+01 0.0000000000000000e+00 6.9001037015769825e+01 1.5522759889329452e+01 0.0000000000000000e+00 0.0000000000000000e+00 0.0000000000000000e+00 0.0000000000000000e+00  1.4959956192996020e+00 -7.4716657417754968e+00 0.0000000000000000e+00 -7.4716657417754968e+00 1.4220393480078695e+00 0.0000000000000000e+00 0.0000000000000000e+00 0.0000000000000000e+00 0.0000000000000000e+00  1.9774142933713300e+01 1.3684495114638333e+01 0.0000000000000000e+00 1.3684495114638333e+01 1.9799460665434399e+01 0.0000000000000000e+00 0.0000000000000000e+00 0.00000000