<?xml version="1.0"?>
<VTKFile type="UnstructuredGrid"  version="0.1"  >
<UnstructuredGrid>
<Piece  NumberOfPoints="5185" NumberOfCells="10070">
<Points>
<DataArray  type="Float64"  NumberOfComponents="3"  format="ascii">0 1.5 0  0 0 0  0.1232405621108402 0 0  0.1232405621108402 0.02253860454731437 0  0.1476111412843772 0.06045996594834066 0  0.1886148129381372 0.07918571535047463 0  0.2332332010401509 0.07277055962836147 0  0.2673002826264945 0.0432512653964478 0  0.28 0 0  0.5342215165449864 0 0  0.5342215165449864 0.02394141003279682 0  0.5649999999999999 0.06062177826491071 0  0.6121553724366851 0.06893654271085457 0  0.6536231110183285 0.04499513267805775 0  0.6699999999999999 0 0  0.91 0 0  0.9220577136594005 0.04499999999999999 0  0.9550000000000001 0.07794228634059948 0  1 0.09 0  1.045 0.07794228634059946 0  1.077942286340599 0.04499999999999999 0  1.09 0 0  1.52324056211084 0 0  1.52324056211084 0.02253860454731437 0  1.547611141284377 0.06045996594834066 0  1.588614812938137 0.07918571535047463 0  1.633233201040151 0.07277055962836147 0  1.667300282626495 0.0432512653964478 0  1.68 0 0  1.84 0 0  1.857573593128807 0.04242640687119285 0  1.9 0.06 0  1.942426406871193 0.04242640687119285 0  1.96 0 0  2.22324056211084 0 0  2.22324056211084 0.02253860454731437 0  2.247611141284377 0.06045996594834066 0  2.288614812938137 0.07918571535047463 0  2.333233201040151 0.07277055962836147 0  2.367300282626494 0.0432512653964478 0  2.38 0 0  2.534221516544986 0 0  2.534221516544986 0.02394141003279682 0  2.565 0.06062177826491071 0  2.612155372436685 0.06893654271085457 0  2.653623111018328 0.04499513267805775 0  2.67 0 0  3 0 0  3 1.5 0  0 0.75 0  1.5 1.5 0  0 0.375 0  0.75 1.5 0  2.25 1.5 0  3 0.75 0  1.216228490499689 0.8069757125887627 0  1.965682393638027 0.8065702515463131 0  0.6025408912810675 0.8974591087189325 0  2.494676348647751 0.9946763486477508 0  2.356709259621435 0.5447946099875809 0  0.8599642199210003 0.5226206461323684 0  0.4216394361293908 0.4974105777134379 0  0.375 1.5 0  0 1.125 0  1.875 1.5 0  1.591091407334617 1.058091082812092 0  1.125 1.5 0  1.590810830624645 0.5394732912049653 0  0.9375 1.13479915923725 0  3 0.375 0  3 1.125 0  2.625 1.5 0  1.995245765771775 0.4277948434396763 0  2.145880954246818 1.137688199332401 0  1.227783477957362 0.427141979786574 0  2.705436295205127 0.5625 0  1.268702849688826 1.133996222613609 0  0.3526676910824388 1.147332308917561 0  0.3097907151415997 0.7889144057821572 0  0.903221947180751 0.828141240074398 0  0.6461527570085278 1.190944174645022 0  2.258488242757536 0.8210127920483788 0  2.400058919161888 1.260760484185309 0  2.778889354513028 0.9375 0  2.725079155390203 1.225079155390203 0  1.853608154101008 1.201589046866999 0  2.540576981905353 0.3370046821869876 0  0.7811555507088518 0.2732832036972447 0  1.493222576519009 0.798835058995101 0  1.747409300790817 0.3184283662481822 0  1.459899526511598 0.3067772450698331 0  0.1875 1.5 0  0 0.5625 0  2.521594883841638 0.7403247928378012 0  0.2438476629309629 0.32244155773108 0  3 0.1875 0  2.776470677837637 0.28125 0  2.121241022911138 0.6281701698960991 0  1.728545483402697 0.8581016441191361 0  1.012422318322288 0.3271268474523591 0  2.305755967143385 0.3144626442661202 0  1.30662028105542 0 0  1.6875 1.5 0  1.8265892939935 0.6051726401583923 0  0.5458598773451642 0.2962606377138959 0  0 0.9375 0  1.349377516922966 0.6209336375388498 0  1.079656249611334 0.612728400373996 0  0.7151087041654347 0.6989529576230681 0  2.0625 1.5 0  1.59375 1.288981971791887 0  2.085107439753329 0.2191742438537923 0  0.6402689932842839 0.4934943541428904 0  1.228474271256239 0.2064231070567615 0  1.3125 1.5 0  1.06968030723948 0.9647793670181679 0  0.2113350105157037 0.5332932754427466 0  0 1.3125 0  0.5051540211699285 0.7110632261327643 0  0.4775171365050886 1.316467280173536 0  1.967112413780365 1.020384154410382 0  0.8191736043349165 1.304781661824189 0  1.103455205015878 1.280328263155604 0  0.7649318329201844 1.023310716596371 0  0.2120544860962804 0.9823800432730223 0  1.359100570345391 0.9517705003379791 0  0.1711043107784345 1.21875 0  3 1.3125 0  2.8125 1.5 0  2.714178691455841 0.7554813872281284 0  2.217815962767571 1.313132398873298 0  2.020480176543968 1.307095379623413 0  2.29875620117699 1.013690599387144 0  0.3848285295772316 0.1937040883803935 0  0.9375 1.5 0  3 0.9375 0  2.4375 1.5 0  3 0.5625 0  0 0.1875 0  0.5625 1.5 0  2.835 0 0  1.386383673099448 1.305536509588035 0  1.773513842966063 1.0362399691084 0  2.179843036592861 0.4515211056338026 0  0.4134910794700652 0.9582824971065591 0  2.107214813096467 0.9125353945687058 0  1.916698009609654 0.2702971158297667 0  2.533006985360663 0.5155509623987015 0  2.838574938309606 0.4465309273225452 0  0.3016597101560133 1.338635596991575 0  1.641573393474498 0.7066136805426366 0  2.855238878880983 0.65625 0  1.398074618385877 0.1459865472102536 0  1.756539173374812 1.342993235461221 0  2.434593137832078 0.2067018044975929 0  1.434366740555482 0.4743139981449843 0  1.440742946818836 1.142108619191562 0  0.549043549720087 1.055391704395 0  2.571565919072277 1.32487216700893 0  2.535776521770127 1.159155922815097 0  2.652193336606067 1.04269083214613 0  0.660031172970541 1.35825582857438 0  2.607645482283307 0.8780318994093907 0  1.09590027081365 1.121554905778777 0  0.1474979543625655 0.8283466240195498 0  1.056776372361757 0.7739494406659941 0  0.3647560414155882 0.6427945145874604 0  1.699724067482516 1.17405657891935 0  0.913786173488833 0.9822051271795349 0  0.9283491691592597 0.66876089182342 0  0.7498959802087029 0.8498501951910959 0  0.3951228082283652 0.3465404522808934 0  1.23887612906836 1.360760366473919 0  0.1206420558503055 0.65625 0  1.735537276557186 0.4760109437618505 0  1.799297742536812 0.1791526413061006 0  1.970987958006469 0.6541756362249113 0  1.080810552147559 0.461742062484039 0  2.268149337929528 0.6688757993926466 0  2.413602460817152 0.8574959373397593 0  2.833998248858927 1.096635576389 0  2.71875 1.378451438260757 0  2.001906612723158 1.162230131308666 0  2.859452984352005 0.8083820929207302 0  2.688478120768856 0.4086214703657035 0  1.214106348747711 0.9519545202622776 0  2.850368184690094 1.307066142740315 0  1.864893983840636 0.9141560734025058 0  1.60661446108863 0.2395589708587393 0  1.61163060570479 0.3901968276506504 0  2.771867619212225 0.1335769833684914 0  0.7969119039620236 1.163109784140262 0  0.9599416701963486 1.276596315583475 0  2.103624150445193 0.7698297553089299 0  2.279721363034605 1.185280797873663 0  2.34375 1.392122382816539 0  0.1382307077648764 1.361769292235123 0  0.1426478344893104 0.2175212356047023 0  2.406413880432258 1.104106228251116 0  2.414971181397263 0.4111042519521358 0  2.637277274673136 0.2192348292007474 0  1.353600469573883 0.7646239317376279 0  1.494012125944227 0.651091825511382 0  1.590274899157226 0.9102986199774393 0  1.028633500752755 1.396325660524358 0  1.829615743479497 0.7518128394998403 0  1.861059000344659 0.3963812297683985 0  0.510900777690535 1.185277566959035 0  1.213080286311768 0.6640546084318578 0  0.79 0 0  0.8167897395818556 0.1376517357725223 0  0.9319739747594649 0.2144569310211157 0  1.889188139713804 1.330032757791382 0  0.655714683266079 0.2049689967103183 0  2.09162028105542 0 0  0.1359367774292784 0.4137345801986589 0  0.4380798275211911 0.8267965724704243 0  2.40400705830434 0.6721965963037969 0  0.3027633520173528 0.4394586980387968 0  0.8782788855287165 0.379708545377904 0  0.7595213470930909 0.4371189613680841 0  1.317967779309324 0.3170637160852436 0  0.6053759621699666 0.6225641226781395 0  0.6530309552265516 0.3661735489900947 0  2.594089294631991 0.631328821944253 0  0 1.03125 0  0.1304283746114646 1.089970844689444 0  0.4071107582724932 0 0  1.469526282978338 1.017083854458662 0  1.088959023533499 0.2104112015424126 0  1.161808378403757 0.3165749773273478 0  2.172966779463329 0.3188379172988492 0  2.216343768168092 0.1920401700474863 0  3 0.09375 0  1.905024675365066 0.5108806275986008 0  1.702014103004408 0.5963171944847371 0  0.2428042557945101 0.6514309613450368 0  3 1.40625 0  0.262372466757009 0.191725613649506 0  2.116791485436391 1.387145016777417 0  1.96875 1.5 0  2.885528053432104 0.3345800153572822 0  2.875601419873791 0.2042517854891826 0  2.298911783255236 0.4400662366556407 0  2.459247322083259 1.363881377923602 0  0.9735587139454543 0.5585353431007029 0  1.176315140569268 0.5379697839544898 0  2.0296370010214 0.5459700999805513 0  0.4987416453488727 0.4060939323248423 0  0.5397511702990104 0.1771676763212877 0  3 1.21875 0  2.238710633113112 0.5542203056099733 0  1.19831014052771 0 0  1.583962270593198 1.173633921912192 0  1.650563144166832 1.390075718520202 0  1.496025571730155 1.371899864460592 0  3 1.03125 0  2.887481932992674 0.9890041589451042 0  0.247836885460272 1.094286258989912 0  0.4719220056590702 0.6009044603312741 0  1.97565550452845 0.1615660574331665 0  2.131135530378305 0.1108580974478677 0  1.318642333542132 0.5051755928544708 0  1.217460132329928 1.242599824876711 0  1.511891312109549 0.1714963794002952 0  2.174601400318987 1.01685942781215 0  0.9082882406313817 1.384236564302014 0  0.6140422604397168 0.7728109899968187 0  0.8289359680247524 0.7347587321432018 0  0.741509926624258 0.5729763888559004 0  2.058356323822746 0.3313153147701495 0  0.4534336320756143 0.1034622594748756 0  1.40625 1.5 0  1.689084537897351 0.9628079283127213 0  1.156270839633873 0.1228556218721798 0  1.29033806179015 0.1118395069726669 0  1.460859151915469 0.9057320169622244 0  2.326558662668462 0.1831424028173474 0  0.9693052477371982 0.4460054238200853 0  0.6625304018229865 1.076650755704414 0  1.41493042158313 0 0  0.4485426513928407 1.096421738127594 0  0.2454589766548061 0.8778352103982039 0  0.1115239912906509 0.9339683416032414 0  1.134782462834443 0.8782884736059876 0  0.9999448991609674 1.04695529392896 0  0.9835215815673453 0.9000292002687431 0  2.53125 1.5 0  0.3175564878698739 1.010319294269645 0  1.971944763694389 0.9134401013848152 0  2.06
[...]
<PointData  Tensors="f_150"> 
<DataArray  type="Float64"  Name="f_150"  NumberOfComponents="9" format="ascii">-3.9199811844104220e+00 -8.8005848623770895e+00 0.0000000000000000e+00 -8.8005848623770895e+00 -4.3342201519525954e-02 0.0000000000000000e+00 0.0000000000000000e+00 0.0000000000000000e+00 0.0000000000000000e+00  2.7194219469547981e+01 -8.8279154231860559e+00 0.0000000000000000e+00 -8.8279154231860559e+00 1.3173612625977647e+01 0.0000000000000000e+00 0.0000000000000000e+00 0.0000000000000000e+00 0.0000000000000000e+00  2.5606516645965268e+01 -1.1234185476443728e+00 0.0000000000000000e+00 -1.1234185476443728e+00 3.4101007272626546e+01 0.0000000000000000e+00 0.0000000000000000e+00 0.0000000000000000e+00 0.0000000000000000e+00  3.4087847432316686e+01 3.5195818066638220e+00 0.0000000000000000e+00 3.5195818066638220e+00 2.1023285406090189e+01 0.0000000000000000e+00 0.0000000000000000e+00 0.0000000000000000e+00 0.0000000000000000e+00  3.2856949871218482e+01 4.8406675291756853e+00 0.0000000000000000e+00 4.8406675291756853e+00 1.9002103466440907e+01 0.0000000000000000e+00 0.0000000000000000e+00 0.0000000000000000e+00 0.0000000000000000e+00  2.9751023428871026e+01 7.8898578111160962e+00 0.0000000000000000e+00 7.8898578111160962e+00 2.2966897325068622e+01 0.0000000000000000e+00 0.0000000000000000e+00 0.0000000000000000e+00 0.0000000000000000e+00  3.0421817121865562e+01 7.6040833963433139e+00 0.0000000000000000e+00 7.6040833963433139e+00 2.3691245545392011e+01 0.0000000000000000e+00 0.0000000000000000e+00 0.0000000000000000e+00 0.0000000000000000e+00  2.8156424687546405e+01 5.4105241702267879e+00 0.0000000000000000e+00 5.4105241702267879e+00 3.0398890615242031e+01 0.0000000000000000e+00 0.0000000000000000e+00 0.0000000000000000e+00 0.0000000000000000e+00  2.9742434432383153e+01 -3.6590056979685433e-02 0.0000000000000000e+00 -3.6590056979685433e-02 3.7634891000624251e+01 0.0000000000000000e+00 0.0000000000000000e+00 0.0000000000000000e+00 0.0000000000000000e+00  2.6869791126683989e+01 2.2679486473982315e+00 0.0000000000000000e+00 2.2679486473982315e+00 1.9325152772829082e+01 0.0000000000000000e+00 0.0000000000000000e+00 0.0000000000000000e+00 0.0000000000000000e+00  1.4134506421051569e+01 -7.5159969494144185e+00 0.0000000000000000e+00 -7.5159969494144185e+00 3.3302977283601692e+01 0.0000000000000000e+00 0.0000000000000000e+00 0.0000000000000000e+00 0.0000000000000000e+00  1.9060071966821440e+01 6.7637531009715912e-01 0.0000000000000000e+00 6.7637531009715912e-01 3.5223348211788604e+01 0.0000000000000000e+00 0.0000000000000000e+00 0.0000000000000000e+00 0.0000000000000000e+00  2.0249679794826072e+01 3.3266782443823684e-01 0.0000000000000000e+00 3.3266782443823684e-01 3.7572366878112483e+01 0.0000000000000000e+00 0.0000000000000000e+00 0.0000000000000000e+00 0.0000000000000000e+00  1.5356937097725590e+01 1.5576740840269334e+00 0.0000000000000000e+00 1.5576740840269334e+00 3.4114499336185922e+01 0.0000000000000000e+00 0.0000000000000000e+00 0.0000000000000000e+00 0.0000000000000000e+00  2.6344890813486881e+01 -2.5021537976480577e+00 0.0000000000000000e+00 -2.5021537976480577e+00 1.4492577425425749e+01 0.0000000000000000e+00 0.0000000000000000e+00 0.0000000000000000e+00 0.0000000000000000e+00  2.7986573943446921e+01 -1.7551931144165878e+00 0.0000000000000000e+00 -1.7551931144165878e+00 3.4850256372338187e+01 0.0000000000000000e+00 0.0000000000000000e+00 0.0000000000000000e+00 0.0000000000000000e+00  2.1081528447421032e+01 -4.4939819040988080e+00 0.0000000000000000e+00 -4.4939819040988080e+00 3.1756780549614064e+01 0.0000000000000000e+00 0.0000000000000000e+00 0.0000000000000000e+00 0.0000000000000000e+00  2.4545872224837392e+01 -5.4312815642551362e+00 0.0000000000000000e+00 -5.4312815642551362e+00 2.3751939325032872e+01 0.0000000000000000e+00 0.0000000000000000e+00 0.0000000000000000e+00 0.0000000000000000e+00  2.8876446638423062e+01 -6.0963225045383647e+00 0.0000000000000000e+00 -6.0963225045383647e+00 1.8353152149568174e+01 0.0000000000000000e+00 0.0000000000000000e+00 0.0000000000000000e+00 0.0000000000000000e+00  2.8783346355774938e+01 -2.4203417048038984e+00 0.0000000000000000e+00 -2.4203417048038984e+00 1.4472793480924901e+01 0.0000000000000000e+00 0.0000000000000000e+00 0.0000000000000000e+00 0.0000000000000000e+00  3.5812043223839176e+01 -5.0931465051902887e+00 0.0000000000000000e+00 -5.0931465051902887e+00 7.7399290606112370e+00 0.0000000000000000e+00 0.0000000000000000e+00 0.0000000000000000e+00 0.0000000000000000e+00  2.0514710556807586e+01 -6.3301752994352600e-01 0.0000000000000000e+00 -6.3301752994352600e-01 3.1303474064381795e+01 0.0000000000000000e+00 0.0000000000000000e+00 0.0000000000000000e+00 0.0000000000000000e+00  1.9428058075248373e+01 6.0396461619365001e+00 0.0000000000000000e+00 6.0396461619365001e+00 1.8733611148917635e+01 0.0000000000000000e+00 0.0000000000000000e+00 0.0000000000000000e+00 0.0000000000000000e+00  2.3279689653923946e+01 -3.4639082457826653e+00 0.0000000000000000e+00 -3.4639082457826653e+00 2.5774849228028721e+01 0.0000000000000000e+00 0.0000000000000000e+00 0.0000000000000000e+00 0.0000000000000000e+00  2.2654269998053685e+01 -3.6486647247715656e+00 0.0000000000000000e+00 -3.6486647247715656e+00 2.5600776862078138e+01 0.0000000000000000e+00 0.0000000000000000e+00 0.0000000000000000e+00 0.0000000000000000e+00  2.2311080727907424e+01 -4.1002859112972621e+00 0.0000000000000000e+00 -4.1002859112972621e+00 1.7487978526478798e+01 0.0000000000000000e+00 0.0000000000000000e+00 0.0000000000000000e+00 0.0000000000000000e+00  2.7381286661427847e+01 -5.4239015704954703e+00 0.0000000000000000e+00 -5.4239015704954703e+00 1.2281628458756245e+01 0.0000000000000000e+00 0.0000000000000000e+00 0.0000000000000000e+00 0.0000000000000000e+00  2.8634810688160538e+01 -3.4987673743411842e+00 0.0000000000000000e+00 -3.4987673743411842e+00 1.0802331233321576e+01 0.0000000000000000e+00 0.0000000000000000e+00 0.0000000000000000e+00 0.0000000000000000e+00  3.1652281430946623e+01 2.3199005444826271e+00 0.0000000000000000e+00 2.3199005444826271e+00 1.2891431381154824e+01 0.0000000000000000e+00 0.0000000000000000e+00 0.0000000000000000e+00 0.0000000000000000e+00  2.6134593850041121e+01 -2.1197303769313529e+00 0.0000000000000000e+00 -2.1197303769313529e+00 2.3816366804411441e+01 0.0000000000000000e+00 0.0000000000000000e+00 0.0000000000000000e+00 0.0000000000000000e+00  2.5575718357097053e+01 -4.0902915371336297e+00 0.0000000000000000e+00 -4.0902915371336297e+00 2.1230895249201946e+01 0.0000000000000000e+00 0.0000000000000000e+00 0.0000000000000000e+00 0.0000000000000000e+00  2.5682105047723457e+01 -7.2477512853631199e+00 0.0000000000000000e+00 -7.2477512853631199e+00 1.5627655722316009e+01 0.0000000000000000e+00 0.0000000000000000e+00 0.0000000000000000e+00 0.0000000000000000e+00  2.1967297288226334e+01 -4.7499682488901511e+00 0.0000000000000000e+00 -4.7499682488901511e+00 1.3167086155228093e+01 0.0000000000000000e+00 0.0000000000000000e+00 0.0000000000000000e+00 0.0000000000000000e+00  2.7498841046704587e+01 3.0418791843793485e+00 0.0000000000000000e+00 3.0418791843793485e+00 1.2870210888142999e+01 0.0000000000000000e+00 0.0000000000000000e+00 0.0000000000000000e+00 0.0000000000000000e+00  1.0534023647805133e+01 2.1035788782218758e+00 0.0000000000000000e+00 2.1035788782218758e+00 2.5123636199546688e+01 0.0000000000000000e+00 0.0000000000000000e+00 0.0000000000000000e+00 0.0000000000000000e+00  2.9596585506099029e+01 5.3991748380426374e+00 0.0000000000000000e+00 5.3991748380426374e+00 1.1069936347190236e+01 0.0000000000000000e+00 0.0000000000000000e+00 0.0000000000000000e+00 0.0000000000000000e+00  2.3526116218365949e+01 1.7752226837183860e+00 0.0000000000000000e+00 1.7752226837183860e+00 5.4864647999351694e+00 0.0000000000000000e+00 0.0000000000000000e+00 0.0000000000000000e+00 0.0000000000000000e+00  1.9946777872183588e+01 1.6794211524565952e-01 0.0000000000000000e+00 1.6794211524565950e-01 9.1387720113304045e+00 0.0000000000000000e+00 0.0000000000000000e+00 0.0000000000000000e+00 0.0000000000000000e+00  1.4293187017321417e+01 2.3268770366861893e+00 0.0000000000000000e+00 2.3268770366861893e+00 1.4842113084307696e+01 0.0000000000000000e+00 0.0000000000000000e+00 0.0000000000000000e+00 0.0000000000000000e+00  1.0501235795760353e+01 6.1154868710677857e+00 0.0000000000000000e+00 6.1154868710677857e+00 1.8978168888262854e+01 0.0000000000000000e+00 0.0000000000000000e+00 0.0000000000000000e+00 0.0000000000000000e+00  1.3102524197773246e+01 -7.2255121374769686e+00 0.0000000000000000e+00 -7.2255121374769686e+00 7.2365230742633608e+00 0.0000000000000000e+00 0.0000000000000000e+00 0.0000000000000000e+00 0.0000000000000000e+00  8.6004502328897345e+00 1.8498138527904930e+00 0.0000000000000000e+00 1.8498138527904930e+00 2.1100285056162189e+01 0.0000000000000000e+00 0.0000000000000000e+00 0.0000000000000000e+00 0.0000000000000000e+00  3.0274157078043633e+01 4.5982303251936107e+00 0.0000000000000000e+00 4.5982303251936107e+00 3.2968996291679220e+00 0.0000000000000000e+00 0.0000000000000000e+00 0.0000000000000000e+00 0.0000000000000000e+00  2.8491912457980668e+01 6.7004138511628897e-01 0.0000000000000000e+00 6.7004138511628897e-01 -1.1204286143460485e+00 0.0000000000000000e+00 0.0000000000000000e+00 0.0000000000000000e+00 0.0000000000000000e+00  9.7122504500230207e+00 -3.7029556205836940e+00 0.0000000000000000e+00 -3.7029556205836940e+00 1.1489516251622881e+01 0.0000000000000000e+00 0.0000000000000000e+00 0.0000000000000000e+00 0.0000000000000000e+00  2.2197547140172627e+00 1.1377410360284392e+00 0.0000000000000000e+00 1.1377410360284392e+00 2.0665391849310723e+01 0.0000000000000000e+00 0.0000000000000000e+00 0.0000000000000000e+00 0.0000000000000000e+00  1.1581317260705788e+01 -4.2669065821940952e+00 0.0000000000000000e+00 -4.2669065821940952e+00 4.2587831107521570e+00 0.0000000000000000e+00 0.0000000000000000e+00 0.0000000000000000e+00 0.0000000000000000e+00  -1.6540073324931903e+01 4.8172091201117890e+00 0.0000000000000000e+00 4.8172091201117890e+00 3.3718433018035374e+00 0.0000000000000000e+00 0.0000000000000000e+00 0.0000000000000000e+00 0.0000000000000000e+00  2.1361833273032062e+01 1.0402572351353008e+01 0.0000000000000000e+00 1.0402572351353008e+01 3.3838839683243199e-01 0.0000000000000000e+00 0.0000000000000000e+00 0.0000000000000000e+00 0.0000000000000000e+00  1.0292514072274296e+01 1.0833705907882917e+01 0.0000000000000000e+00 1.0833705907882917e+01 8.8306977647298694e+00 0.0000000000000000e+00 0.0000000000000000e+00 0.0000000000000000e+00 0.0000000000000000e+00  -8.9916674137110864e+00 8.7403250860308823e-01 0.0000000000000000e+00 8.7403250860308823e-01 -2.2890938074802563e+01 0.0000000000000000e+00 0.0000000000000000e+00 0.0000000000000000e+00 0.0000000000000000e+00  1.9910752578406566e+01 1.2531627841098862e+01 0.0000000000000000e+00 1.2531627841098862e+01 2.0762908376506452e+01 0.0000000000000000e+00 0.0000000000000000e+00 0.0000000000000000e+00 0.0000000000000000e+00  -1.6348723423924771e+01 2.8767313643337622e+00 0.0000000000000000e+00 2.8767313643337622e+00 -4.4204150143636687e+00 0.0000000000000000e+00 0.0000000000000000e+00 0.0000000000000000e+00 0.0000000000000000e+00  -1.7219968616661550e+01 -1.9892040212389583e+00 0.0000000000000000e+00 -1.9892040212389583e+00 -7.7005777164646538e+00 0.0000000000000000e+00 0.0000000000000000e+00 0.0000000000000000e+00 0.0000000000000000e+00  -1.0305892012997784e+00 -2.8857647381405805e+01 0.0000000000000000e+00 -2.8857647381405805e+01 6.0694357678035580e+00 0.0000000000000000e+00 0.0000000000000000e+00 0.0000000000000000e+00 0.0000000000000000e+00  4.4964924159196444e+00 -7.2100631907392354e-01 0.0000000000000000e+00 -7.2100631907392354e-01 4.4883183839120422e+00 0.0000000000000000e+00 0.0000000000000000e+00 0.0000000000000000e+00 0.0000000000000000e+00  2.1939040308013382e+00 7.3807187663638518e-01 0.0000000000000000e+00 7.3807187663638529e-01 2.1487072184507072e+00 0.0000000000000000e+00 0.0000000000000000e+00 0.0000000000000000e+00 0.0000000000000000e+00  4.1652530103027781e+00 -1.1931430535916518e-01 0.0000000000000000e+00 -1.1931430535916517e-01 4.1646494738946842e+00 0.0000000000000000e+00 0.0000000000000000e+00 0.0000000000000000e+00 0.0000000000000000e+00  -1.9113608016302261e+00 -1.8979782927330404e+00 0.0000000000000000e+00 -1.8979782927330404e+00 -2.2290317549566554e+00 0.0000000000000000e+00 0.0000000000000000e+00 0.0000000000000000e+00 0.0000000000000000e+00  5.4971671759256715e+00 1.7795955610544618e+00 0.0000000000000000e+00 1.7795955610544618e+00 5.6498112966796885e+00 0.0000000000000000e+00 0.0000000000000000e+00 0.0000000000000000e+00 0.0000000000000000e+00  1.2780331982780938e+01 1.6080877846002988e+00 0.0000000000000000e+00 1.6080877846002988e+00 1.2753569334555959e+01 0.0000000000000000e+00 0.0000000000000000e+00 0.0000000000000000e+00 0.0000000000000000e+00  1.5000325286124955e+01 -1.2054963520282209e+00 0.0000000000000000e+00 -1.2054963520282209e+00 1.4999625435584932e+01 0.0000000000000000e+00 0.0000000000000000e+00 0.0000000000000000e+00 0.0000000000000000e+00  -7.9291208590626070e+00 -1.0131159771453321e+01 0.0000000000000000e+00 -1.0131159771453321e+01 -1.1255745733564508e+01 0.0000000000000000e+00 0.0000000000000000e+00 0.0000000000000000e+00 0.0000000000000000e+00  -1.1840950503460224e+00 1.2703353209432560e+01 0.0000000000000000e+00 1.2703353209432560e+01 1.1757289446903267e+00 0.0000000000000000e+00 0.0000000000000000e+00 0.0000000000000000e+00 0.0000000000000000e+00  -1.3479593318994208e+01 -1.1636803405470538e+01 0.0000000000000000e+00 -1.1636803405470538e+01 -1.6470047707820523e+01 0.0000000000000000e+00 0.0000000000000000e+00 0.0000000000000000e+00 0.0000000000000000e+00  -2.6331046585205815e+00 -2.0271756016492826e+00 0.0000000000000000e+00 -2.0271756016492826e+00 -2.6585860836743014e+00 0.0000000000000000e+00 0.0000000000000000e+00 0.0000000000000000e+00 0.0000000000000000e+00  -1.5721292787175191e+01 1.3115263587731004e+01 0.0000000000000000e+00 1.3115263587731004e+01 -1.5088025171669690e+01 0.0000000000000000e+00 0.0000000000000000e+00 0.0000000000000000e+00 0.0000000000000000e+00  9.5701896542575593e+00 -2.0045290230857518e+00 0.0000000000000000e+00 -2.0045290230857518e+00 9.5922198438175439e+00 0.0000000000000000e+00 0.0000000000000000e+00 0.0000000000000000e+00 0.0000000000000000e+00  -2.7832349067431963e+00 -1.5099037427677613e+00 0.0000000000000000e+00 -1.5099037427677613e+00 -2.7874269422231088e+00 0.0000000000000000e+00 0.0000000000000000e+00 0.0000000000000000e+00 0.0000000000000000e+00  1.0787280523749734e+01 -2.0942422092539399e+01 0.0000000000000000e+00 -2.0942422092539399e+01 -3.0962643041285998e+00 0.0000000000000000e+00 0.0000000000000000e+00 0.0000000000000000e+00 0.0000000000000000e+00  -1.4909464252747455e+01 -2.9674002525158642e+01 0.0000000000000000e+00 -2.9674002525158642e+01 -2.9881997485673057e+00 0.0000000000000000e+00 0.0000000000000000e+00 0.0000000000000000e+00 0.0000000000000000e+00  -1.0816283584047238e+01 1.8179742456456331e+00 0.0000000000000000e+00 1.8179742456456331e+00 -1.1004203922635181e+01 0.0000000000000000e+00 0.0000000000000000e+00 0.0000000000000000e+00 0.0000000000000000e+00  1.0087577208682806e+01 1.8293345274752224e+00 0.0000000000000000e+00 1.8293345274752224e+00 1.0200461896569349e+01 0.0000000000000000e+00 0.0000000000000000e+00 0.0000000000000000e+00 0.0000000000000000e+00  -5.0108785961503184e+00 -1.6543473165040206e+00 0.0000000000000000e+00 -1.6543473165040206e+00 -5.2188603011333354e+00 0.0000000000000000e+00 0.0000000000000000e+00 0.0000000000000000e+00 0.0000000000000000e+00  1.3752842878027575e+01 -1.1882043036464209e+00 0.0000000000000000e+00 -1.1882043036464209e+00 1.3776004785401719e+01 0.0000000000000000e+00 0.0000000000000000e+00 0.0000000000000000e+00 0.0000000000000000e+00  2.6041628134719308e+00 -7.1274705898071264e-02 0.0000000000000000e+00 -7.1274705898071264e-02 2.8035768750339352e+00 0.0000000000000000e+00 0.0000000000000000e+00 0.0000000000000000e+00 0.0000000000000000e+00  -3.6575775682159462e+00 -2.1439554477711349e+00 0.0000000000000000e+00 -2.1439554477711349e+00 -3.6761419669439803e+00 0.0000000000000000e+00 0.0000000000000000e+00 0.0000000000000000e+00 0.0000000000000000e+00  -1.5542149913752106e+00 -1.9153378620082813e+00 0.0000000000000000e+00 -1.9153378620082813e+00 -1.5363266629150090e+00 0.0000000000000000e+00 0.0000000000000000e+00 0.0000000000000000e+00 0.0000000000000000e+00  7.8538749656470932e+00 -4.3964654005898551e-01 0.0000000000000000e+00 -4.3964654005898551e-01 7.8435355553310027e+00 0.0000000000000000e+00 0.0000000000000000e+00 0.0000000000000000e+00 0.0000000000000000e+00  4.9778661369577657e+00 -1.2714674085283664e-01 0.0000000000000000e+00 -1.2714674085283664e-01 4.9703811895166776e+00 0.0000000000000000e+00 0.0000000000000000e+00 0.0000000000000000e+00 0.0000000000000000e+00  -3.4005871802425256e+00 -1.7671894495252143e+00 0.0000000000000000e+00 -1.7671894495252143e+00 -3.3933539216591746e+00 0.0000000000000000e+00 0.0000000000000000e+00 0.0000000000000000e+00 0.0000000000000000e+00  1.0699693655624236e+00 4.2186523252947034e-01 0.0000000000000000e+00 4.2186523252947034e-01 1.0487295908554817e+00 0.0000000000000000e+00 0.0000000000000000e+00 0.0000000000000000e+00 0.0000000000000000e+00  -6.8950568981071960e+00 1.6040334191456387e-01 0.0000000000000000e+00 1.6040334191456387e-01 -7.2631937010272676e+00 0.0000000000000000e+00 0.0000000000000000e+00 0.0000000000000000e+00 0.0000000000000000e+00  -6.3677986245704443e-01 -1.7787630387067992e+00 0.0000000000000000e+00 -1.7787630387067992e+00 -7.0352140125570439e-01 0.0000000000000000e+00 0.0000000000000000e+00 0.0000000000000000e+00 0.0000000000000000e+00  -3.8364705094372895e+00 -7.1015797586457385e-01 0.0000000000000000e+00 -7.1015797586457385e-01 -4.1442115285926722e+00 0.0000000000000000e+00 0.0000000000000000e+00 0.0000000000000000e+00 0.0000000000000000e+00  -6.4229998820051266e+00 -1.8896617598585206e+00 0.0000000000000000e+00 -1.8896617598585206e+00 -6.5308983790184829e+00 0.0000000000000000e+00 0.0000000000000000e+00 0.0000000000000000e+00 0.0000000000000000e+00  7.5571396110949403e+00 -1.5293483810686812e-01 0.0000000000000000e+00 -1.5293483810686812e-01 7.7358622984656744e+00 0.0000000000000000e+00 0.0000000000000000e+00 0.0000000000000000e+00 0.0000000000000000e+00  1.9400780358705749e+01 1.2792957949591104e+00 0.0000000000000000e+00 1.2792957949591104e+00 1.9442378756958554e+01 0.0000000000000000e+00 0.0000000000000000e+00 0.0000000000000000e+00 0.0000000000000000e+00  3.7764871802572944e+00 3.0278547307369269e-01 0.0000000000000000e+00 3.0278547307369269e-01 3.8164000069140505e+00 0.0000000000000000e+00 0.0000000000000000e+00 0.0000000000000000e+00 0.0000000000000000e+00  1.3991829293281976e+01 1.9247365444299243e+00 0.0000000000000000e+00 1.9247365444299243e+00 1.4045895286755050e+01 0.0000000000000000e+00 0.0000000000000000e+00 0.0000000000000000e+00 0.0000000000000000e+00  1.5704563365739391e+01 1.6136463720133540e+00 0.0000000000000000e+00 1.6136463720133540e+00 1.5809355658466338e+01 0.0000000000000000e+00 0.0000000000000000e+00 0.0000000000000000e+00 0.0000000000000000e+00  -1.4506578664316546e+01 8.6114570310321099e+00 0.0000000000000000e+00 8.6114570310321099e+00 -6.3446878983151711e+00 0.0000000000000000e+00 0.0000000000000000e+00 0.0000000000000000e+00 0.0000000000000000e+00  1.5098314759282248e+01 1.3064201576409097e+01 0.0000000000000000e+00 1.3064201576409097e+01 1.5066860854158181e+01 0.0000000000000000e+00 0.0000000000000000e+00 0.0000000000000000e+00 0.0000000000000000e+00  1.6612803041612676e+00 -1.1191339639511992e+00 0.0000000000000000e+00 -1.1191339639511992e+00 1.5575893376897330e+00 0.0000000000000000e+00 0.0000000000000000e+00 0.0000000000000000e+00 0.0000000000000000e+00  2.0103483496464783e+01 1.9921324810276340e+00 0.0000000000000000e+00 1.9921324810276340e+00 2.0093074863982327e+01 0.0000000000000000e+00 0.0000000000000000e+00 0.0000000000000000e+00 0.000