<?xml version="1.0"?>
<VTKFile type="UnstructuredGrid"  version="0.1"  >
<UnstructuredGrid>
<Piece  NumberOfPoints="5185" NumberOfCells="10070">
<Points>
<DataArray  type="Float64"  NumberOfComponents="3"  format="ascii">0 1.5 0  0 0 0  0.1232405621108402 0 0  0.1232405621108402 0.02253860454731437 0  0.1476111412843772 0.06045996594834066 0  0.1886148129381372 0.07918571535047463 0  0.2332332010401509 0.07277055962836147 0  0.2673002826264945 0.0432512653964478 0  0.28 0 0  0.5342215165449864 0 0  0.5342215165449864 0.02394141003279682 0  0.5649999999999999 0.06062177826491071 0  0.6121553724366851 0.06893654271085457 0  0.6536231110183285 0.04499513267805775 0  0.6699999999999999 0 0  0.91 0 0  0.9220577136594005 0.04499999999999999 0  0.9550000000000001 0.07794228634059948 0  1 0.09 0  1.045 0.07794228634059946 0  1.077942286340599 0.04499999999999999 0  1.09 0 0  1.52324056211084 0 0  1.52324056211084 0.02253860454731437 0  1.547611141284377 0.06045996594834066 0  1.588614812938137 0.07918571535047463 0  1.633233201040151 0.07277055962836147 0  1.667300282626495 0.0432512653964478 0  1.68 0 0  1.84 0 0  1.857573593128807 0.04242640687119285 0  1.9 0.06 0  1.942426406871193 0.04242640687119285 0  1.96 0 0  2.22324056211084 0 0  2.22324056211084 0.02253860454731437 0  2.247611141284377 0.06045996594834066 0  2.288614812938137 0.07918571535047463 0  2.333233201040151 0.07277055962836147 0  2.367300282626494 0.0432512653964478 0  2.38 0 0  2.534221516544986 0 0  2.534221516544986 0.02394141003279682 0  2.565 0.06062177826491071 0  2.612155372436685 0.06893654271085457 0  2.653623111018328 0.04499513267805775 0  2.67 0 0  3 0 0  3 1.5 0  0 0.75 0  1.5 1.5 0  0 0.375 0  0.75 1.5 0  2.25 1.5 0  3 0.75 0  1.216228490499689 0.8069757125887627 0  1.965682393638027 0.8065702515463131 0  0.6025408912810675 0.8974591087189325 0  2.494676348647751 0.9946763486477508 0  2.356709259621435 0.5447946099875809 0  0.8599642199210003 0.5226206461323684 0  0.4216394361293908 0.4974105777134379 0  0.375 1.5 0  0 1.125 0  1.875 1.5 0  1.591091407334617 1.058091082812092 0  1.125 1.5 0  1.590810830624645 0.5394732912049653 0  0.9375 1.13479915923725 0  3 0.375 0  3 1.125 0  2.625 1.5 0  1.995245765771775 0.4277948434396763 0  2.145880954246818 1.137688199332401 0  1.227783477957362 0.427141979786574 0  2.705436295205127 0.5625 0  1.268702849688826 1.133996222613609 0  0.3526676910824388 1.147332308917561 0  0.3097907151415997 0.7889144057821572 0  0.903221947180751 0.828141240074398 0  0.6461527570085278 1.190944174645022 0  2.258488242757536 0.8210127920483788 0  2.400058919161888 1.260760484185309 0  2.778889354513028 0.9375 0  2.725079155390203 1.225079155390203 0  1.853608154101008 1.201589046866999 0  2.540576981905353 0.3370046821869876 0  0.7811555507088518 0.2732832036972447 0  1.493222576519009 0.798835058995101 0  1.747409300790817 0.3184283662481822 0  1.459899526511598 0.3067772450698331 0  0.1875 1.5 0  0 0.5625 0  2.521594883841638 0.7403247928378012 0  0.2438476629309629 0.32244155773108 0  3 0.1875 0  2.776470677837637 0.28125 0  2.121241022911138 0.6281701698960991 0  1.728545483402697 0.8581016441191361 0  1.012422318322288 0.3271268474523591 0  2.305755967143385 0.3144626442661202 0  1.30662028105542 0 0  1.6875 1.5 0  1.8265892939935 0.6051726401583923 0  0.5458598773451642 0.2962606377138959 0  0 0.9375 0  1.349377516922966 0.6209336375388498 0  1.079656249611334 0.612728400373996 0  0.7151087041654347 0.6989529576230681 0  2.0625 1.5 0  1.59375 1.288981971791887 0  2.085107439753329 0.2191742438537923 0  0.6402689932842839 0.4934943541428904 0  1.228474271256239 0.2064231070567615 0  1.3125 1.5 0  1.06968030723948 0.9647793670181679 0  0.2113350105157037 0.5332932754427466 0  0 1.3125 0  0.5051540211699285 0.7110632261327643 0  0.4775171365050886 1.316467280173536 0  1.967112413780365 1.020384154410382 0  0.8191736043349165 1.304781661824189 0  1.103455205015878 1.280328263155604 0  0.7649318329201844 1.023310716596371 0  0.2120544860962804 0.9823800432730223 0  1.359100570345391 0.9517705003379791 0  0.1711043107784345 1.21875 0  3 1.3125 0  2.8125 1.5 0  2.714178691455841 0.7554813872281284 0  2.217815962767571 1.313132398873298 0  2.020480176543968 1.307095379623413 0  2.29875620117699 1.013690599387144 0  0.3848285295772316 0.1937040883803935 0  0.9375 1.5 0  3 0.9375 0  2.4375 1.5 0  3 0.5625 0  0 0.1875 0  0.5625 1.5 0  2.835 0 0  1.386383673099448 1.305536509588035 0  1.773513842966063 1.0362399691084 0  2.179843036592861 0.4515211056338026 0  0.4134910794700652 0.9582824971065591 0  2.107214813096467 0.9125353945687058 0  1.916698009609654 0.2702971158297667 0  2.533006985360663 0.5155509623987015 0  2.838574938309606 0.4465309273225452 0  0.3016597101560133 1.338635596991575 0  1.641573393474498 0.7066136805426366 0  2.855238878880983 0.65625 0  1.398074618385877 0.1459865472102536 0  1.756539173374812 1.342993235461221 0  2.434593137832078 0.2067018044975929 0  1.434366740555482 0.4743139981449843 0  1.440742946818836 1.142108619191562 0  0.549043549720087 1.055391704395 0  2.571565919072277 1.32487216700893 0  2.535776521770127 1.159155922815097 0  2.652193336606067 1.04269083214613 0  0.660031172970541 1.35825582857438 0  2.607645482283307 0.8780318994093907 0  1.09590027081365 1.121554905778777 0  0.1474979543625655 0.8283466240195498 0  1.056776372361757 0.7739494406659941 0  0.3647560414155882 0.6427945145874604 0  1.699724067482516 1.17405657891935 0  0.913786173488833 0.9822051271795349 0  0.9283491691592597 0.66876089182342 0  0.7498959802087029 0.8498501951910959 0  0.3951228082283652 0.3465404522808934 0  1.23887612906836 1.360760366473919 0  0.1206420558503055 0.65625 0  1.735537276557186 0.4760109437618505 0  1.799297742536812 0.1791526413061006 0  1.970987958006469 0.6541756362249113 0  1.080810552147559 0.461742062484039 0  2.268149337929528 0.6688757993926466 0  2.413602460817152 0.8574959373397593 0  2.833998248858927 1.096635576389 0  2.71875 1.378451438260757 0  2.001906612723158 1.162230131308666 0  2.859452984352005 0.8083820929207302 0  2.688478120768856 0.4086214703657035 0  1.214106348747711 0.9519545202622776 0  2.850368184690094 1.307066142740315 0  1.864893983840636 0.9141560734025058 0  1.60661446108863 0.2395589708587393 0  1.61163060570479 0.3901968276506504 0  2.771867619212225 0.1335769833684914 0  0.7969119039620236 1.163109784140262 0  0.9599416701963486 1.276596315583475 0  2.103624150445193 0.7698297553089299 0  2.279721363034605 1.185280797873663 0  2.34375 1.392122382816539 0  0.1382307077648764 1.361769292235123 0  0.1426478344893104 0.2175212356047023 0  2.406413880432258 1.104106228251116 0  2.414971181397263 0.4111042519521358 0  2.637277274673136 0.2192348292007474 0  1.353600469573883 0.7646239317376279 0  1.494012125944227 0.651091825511382 0  1.590274899157226 0.9102986199774393 0  1.028633500752755 1.396325660524358 0  1.829615743479497 0.7518128394998403 0  1.861059000344659 0.3963812297683985 0  0.510900777690535 1.185277566959035 0  1.213080286311768 0.6640546084318578 0  0.79 0 0  0.8167897395818556 0.1376517357725223 0  0.9319739747594649 0.2144569310211157 0  1.889188139713804 1.330032757791382 0  0.655714683266079 0.2049689967103183 0  2.09162028105542 0 0  0.1359367774292784 0.4137345801986589 0  0.4380798275211911 0.8267965724704243 0  2.40400705830434 0.6721965963037969 0  0.3027633520173528 0.4394586980387968 0  0.8782788855287165 0.379708545377904 0  0.7595213470930909 0.4371189613680841 0  1.317967779309324 0.3170637160852436 0  0.6053759621699666 0.6225641226781395 0  0.6530309552265516 0.3661735489900947 0  2.594089294631991 0.631328821944253 0  0 1.03125 0  0.1304283746114646 1.089970844689444 0  0.4071107582724932 0 0  1.469526282978338 1.017083854458662 0  1.088959023533499 0.2104112015424126 0  1.161808378403757 0.3165749773273478 0  2.172966779463329 0.3188379172988492 0  2.216343768168092 0.1920401700474863 0  3 0.09375 0  1.905024675365066 0.5108806275986008 0  1.702014103004408 0.5963171944847371 0  0.2428042557945101 0.6514309613450368 0  3 1.40625 0  0.262372466757009 0.191725613649506 0  2.116791485436391 1.387145016777417 0  1.96875 1.5 0  2.885528053432104 0.3345800153572822 0  2.875601419873791 0.2042517854891826 0  2.298911783255236 0.4400662366556407 0  2.459247322083259 1.363881377923602 0  0.9735587139454543 0.5585353431007029 0  1.176315140569268 0.5379697839544898 0  2.0296370010214 0.5459700999805513 0  0.4987416453488727 0.4060939323248423 0  0.5397511702990104 0.1771676763212877 0  3 1.21875 0  2.238710633113112 0.5542203056099733 0  1.19831014052771 0 0  1.583962270593198 1.173633921912192 0  1.650563144166832 1.390075718520202 0  1.496025571730155 1.371899864460592 0  3 1.03125 0  2.887481932992674 0.9890041589451042 0  0.247836885460272 1.094286258989912 0  0.4719220056590702 0.6009044603312741 0  1.97565550452845 0.1615660574331665 0  2.131135530378305 0.1108580974478677 0  1.318642333542132 0.5051755928544708 0  1.217460132329928 1.242599824876711 0  1.511891312109549 0.1714963794002952 0  2.174601400318987 1.01685942781215 0  0.9082882406313817 1.384236564302014 0  0.6140422604397168 0.7728109899968187 0  0.8289359680247524 0.7347587321432018 0  0.741509926624258 0.5729763888559004 0  2.058356323822746 0.3313153147701495 0  0.4534336320756143 0.1034622594748756 0  1.40625 1.5 0  1.689084537897351 0.9628079283127213 0  1.156270839633873 0.1228556218721798 0  1.29033806179015 0.1118395069726669 0  1.460859151915469 0.9057320169622244 0  2.326558662668462 0.1831424028173474 0  0.9693052477371982 0.4460054238200853 0  0.6625304018229865 1.076650755704414 0  1.41493042158313 0 0  0.4485426513928407 1.096421738127594 0  0.2454589766548061 0.8778352103982039 0  0.1115239912906509 0.9339683416032414 0  1.134782462834443 0.8782884736059876 0  0.9999448991609674 1.04695529392896 0  0.9835215815673453 0.9000292002687431 0  2.53125 1.5 0  0.3175564878698739 1.010319294269645 0  1.971944763694389 0.9134401013848152 0  2.06
[...]
<PointData  Tensors="f_188"> 
<DataArray  type="Float64"  Name="f_188"  NumberOfComponents="9" format="ascii">1.9705813364881044e+00 -1.2807689564739055e+01 0.0000000000000000e+00 -1.2807689564739055e+01 1.2681659597620316e+00 0.0000000000000000e+00 0.0000000000000000e+00 0.0000000000000000e+00 0.0000000000000000e+00  2.6326375607360475e+01 -9.1523948026702264e+00 0.0000000000000000e+00 -9.1523948026702264e+00 1.3790536016814608e+01 0.0000000000000000e+00 0.0000000000000000e+00 0.0000000000000000e+00 0.0000000000000000e+00  2.4373162508130314e+01 -4.6611935171260444e-01 0.0000000000000000e+00 -4.6611935171260444e-01 3.3883700556547510e+01 0.0000000000000000e+00 0.0000000000000000e+00 0.0000000000000000e+00 0.0000000000000000e+00  3.8635634187203600e+01 5.5477534962310298e+00 0.0000000000000000e+00 5.5477534962310298e+00 1.7132333200981954e+01 0.0000000000000000e+00 0.0000000000000000e+00 0.0000000000000000e+00 0.0000000000000000e+00  3.7495938818939450e+01 6.1292056175336809e+00 0.0000000000000000e+00 6.1292056175336809e+00 1.5260207550787118e+01 0.0000000000000000e+00 0.0000000000000000e+00 0.0000000000000000e+00 0.0000000000000000e+00  2.9741199511574454e+01 1.1199959608384448e+01 0.0000000000000000e+00 1.1199959608384448e+01 2.4142720951377314e+01 0.0000000000000000e+00 0.0000000000000000e+00 0.0000000000000000e+00 0.0000000000000000e+00  3.3764876783406187e+01 1.0202386102397764e+01 0.0000000000000000e+00 1.0202386102397764e+01 1.7435838209665526e+01 0.0000000000000000e+00 0.0000000000000000e+00 0.0000000000000000e+00 0.0000000000000000e+00  2.7360943984461684e+01 5.1294708565893750e+00 0.0000000000000000e+00 5.1294708565893750e+00 2.7334311760754805e+01 0.0000000000000000e+00 0.0000000000000000e+00 0.0000000000000000e+00 0.0000000000000000e+00  2.8895843310344780e+01 -2.3685910145299012e+00 0.0000000000000000e+00 -2.3685910145299012e+00 3.2992338285761178e+01 0.0000000000000000e+00 0.0000000000000000e+00 0.0000000000000000e+00 0.0000000000000000e+00  2.6956487683085658e+01 2.2706621853381619e+00 0.0000000000000000e+00 2.2706621853381619e+00 1.8696162054805566e+01 0.0000000000000000e+00 0.0000000000000000e+00 0.0000000000000000e+00 0.0000000000000000e+00  8.0390609657366827e+00 -9.9639897635754284e+00 0.0000000000000000e+00 -9.9639897635754284e+00 3.6590508702356544e+01 0.0000000000000000e+00 0.0000000000000000e+00 0.0000000000000000e+00 0.0000000000000000e+00  1.4558656535563786e+01 3.5578206485136068e+00 0.0000000000000000e+00 3.5578206485136068e+00 3.8363743097988007e+01 0.0000000000000000e+00 0.0000000000000000e+00 0.0000000000000000e+00 0.0000000000000000e+00  1.8878349043242991e+01 -1.1390780567089911e+00 0.0000000000000000e+00 -1.1390780567089911e+00 3.8387708033423543e+01 0.0000000000000000e+00 0.0000000000000000e+00 0.0000000000000000e+00 0.0000000000000000e+00  7.5781837249515505e+00 -2.6528450935449938e-01 0.0000000000000000e+00 -2.6528450935449938e-01 3.8511812491615622e+01 0.0000000000000000e+00 0.0000000000000000e+00 0.0000000000000000e+00 0.0000000000000000e+00  2.6803511095703275e+01 -2.4442219027519778e+00 0.0000000000000000e+00 -2.4442219027519778e+00 1.2549925920029775e+01 0.0000000000000000e+00 0.0000000000000000e+00 0.0000000000000000e+00 0.0000000000000000e+00  2.6361645204036719e+01 -1.6289933649085669e-01 0.0000000000000000e+00 -1.6289933649085669e-01 3.2696647173176366e+01 0.0000000000000000e+00 0.0000000000000000e+00 0.0000000000000000e+00 0.0000000000000000e+00  1.7555302666918049e+01 -4.1135477715701612e+00 0.0000000000000000e+00 -4.1135477715701612e+00 3.0593532523248349e+01 0.0000000000000000e+00 0.0000000000000000e+00 0.0000000000000000e+00 0.0000000000000000e+00  2.5258596997178667e+01 -7.9081272438496431e+00 0.0000000000000000e+00 -7.9081272438496431e+00 2.1056436356514979e+01 0.0000000000000000e+00 0.0000000000000000e+00 0.0000000000000000e+00 0.0000000000000000e+00  3.0925777219074796e+01 -9.9666938318079819e+00 0.0000000000000000e+00 -9.9666938318079819e+00 1.6182760790143529e+01 0.0000000000000000e+00 0.0000000000000000e+00 0.0000000000000000e+00 0.0000000000000000e+00  3.1203173987905323e+01 -1.9057083548150107e+00 0.0000000000000000e+00 -1.9057083548150107e+00 1.2176238828948104e+01 0.0000000000000000e+00 0.0000000000000000e+00 0.0000000000000000e+00 0.0000000000000000e+00  4.4024414152347305e+01 -9.3567793091126692e+00 0.0000000000000000e+00 -9.3567793091126692e+00 -7.5430238280027784e-01 0.0000000000000000e+00 0.0000000000000000e+00 0.0000000000000000e+00 0.0000000000000000e+00  1.8740256138644813e+01 -2.5556260183983963e+00 0.0000000000000000e+00 -2.5556260183983963e+00 2.9108115994759565e+01 0.0000000000000000e+00 0.0000000000000000e+00 0.0000000000000000e+00 0.0000000000000000e+00  1.4566284576187329e+01 9.6069722234044495e+00 0.0000000000000000e+00 9.6069722234044495e+00 1.7297630092365146e+01 0.0000000000000000e+00 0.0000000000000000e+00 0.0000000000000000e+00 0.0000000000000000e+00  2.2566530710705518e+01 -1.9547813258449347e+00 0.0000000000000000e+00 -1.9547813258449347e+00 2.6676115930871177e+01 0.0000000000000000e+00 0.0000000000000000e+00 0.0000000000000000e+00 0.0000000000000000e+00  2.4361757515252599e+01 -4.4694004167897941e+00 0.0000000000000000e+00 -4.4694004167897941e+00 2.2442876903376380e+01 0.0000000000000000e+00 0.0000000000000000e+00 0.0000000000000000e+00 0.0000000000000000e+00  2.3298661276311044e+01 -7.7747032827219478e+00 0.0000000000000000e+00 -7.7747032827219478e+00 1.5550735352397343e+01 0.0000000000000000e+00 0.0000000000000000e+00 0.0000000000000000e+00 0.0000000000000000e+00  3.0900221805752928e+01 -6.9713654241635510e+00 0.0000000000000000e+00 -6.9713654241635510e+00 9.1490266877099948e+00 0.0000000000000000e+00 0.0000000000000000e+00 0.0000000000000000e+00 0.0000000000000000e+00  3.3520208899875982e+01 -5.6867534960483592e+00 0.0000000000000000e+00 -5.6867534960483592e+00 5.0128701956224093e+00 0.0000000000000000e+00 0.0000000000000000e+00 0.0000000000000000e+00 0.0000000000000000e+00  3.5826011823993838e+01 3.1764051557905875e+00 0.0000000000000000e+00 3.1764051557905875e+00 7.7883270577780905e+00 0.0000000000000000e+00 0.0000000000000000e+00 0.0000000000000000e+00 0.0000000000000000e+00  2.5286301451079151e+01 1.2161160776181652e+00 0.0000000000000000e+00 1.2161160776181652e+00 1.6795886415352847e+01 0.0000000000000000e+00 0.0000000000000000e+00 0.0000000000000000e+00 0.0000000000000000e+00  2.8639106004815105e+01 -2.7964182029037801e+00 0.0000000000000000e+00 -2.7964182029037801e+00 1.7007539929339426e+01 0.0000000000000000e+00 0.0000000000000000e+00 0.0000000000000000e+00 0.0000000000000000e+00  2.7533615591477105e+01 -1.2369213741465490e+01 0.0000000000000000e+00 -1.2369213741465490e+01 1.4992414482194659e+01 0.0000000000000000e+00 0.0000000000000000e+00 0.0000000000000000e+00 0.0000000000000000e+00  2.3880221630972365e+01 -6.4125033624645500e+00 0.0000000000000000e+00 -6.4125033624645500e+00 1.1018713303711664e+01 0.0000000000000000e+00 0.0000000000000000e+00 0.0000000000000000e+00 0.0000000000000000e+00  3.1798962425568011e+01 4.7766934720266132e+00 0.0000000000000000e+00 4.7766934720266132e+00 9.9549094153173119e+00 0.0000000000000000e+00 0.0000000000000000e+00 0.0000000000000000e+00 0.0000000000000000e+00  8.4412335300778452e+00 3.5296330616857414e+00 0.0000000000000000e+00 3.5296330616857414e+00 2.4816810971677580e+01 0.0000000000000000e+00 0.0000000000000000e+00 0.0000000000000000e+00 0.0000000000000000e+00  3.5612592245911678e+01 8.8654885768575333e+00 0.0000000000000000e+00 8.8654885768575333e+00 7.9801495948249785e+00 0.0000000000000000e+00 0.0000000000000000e+00 0.0000000000000000e+00 0.0000000000000000e+00  2.7245610404452126e+01 3.6142646136379691e-01 0.0000000000000000e+00 3.6142646136379691e-01 7.1013511349024239e-01 0.0000000000000000e+00 0.0000000000000000e+00 0.0000000000000000e+00 0.0000000000000000e+00  2.0171357175059804e+01 4.0801853243480224e-01 0.0000000000000000e+00 4.0801853243480224e-01 8.3616087344002548e+00 0.0000000000000000e+00 0.0000000000000000e+00 0.0000000000000000e+00 0.0000000000000000e+00  1.5328693158489706e+01 5.5279864210430851e+00 0.0000000000000000e+00 5.5279864210430851e+00 1.1338827199448440e+01 0.0000000000000000e+00 0.0000000000000000e+00 0.0000000000000000e+00 0.0000000000000000e+00  6.5125416524866822e+00 4.4462325961001934e+00 0.0000000000000000e+00 4.4462325961001934e+00 1.8129380541685929e+01 0.0000000000000000e+00 0.0000000000000000e+00 0.0000000000000000e+00 0.0000000000000000e+00  5.3827586452315952e+00 -1.4374385775948570e+01 0.0000000000000000e+00 -1.4374385775948570e+01 1.8511971403562619e+00 0.0000000000000000e+00 0.0000000000000000e+00 0.0000000000000000e+00 0.0000000000000000e+00  6.7749776475053833e+00 2.9834044131907191e+00 0.0000000000000000e+00 2.9834044131907191e+00 2.1355576648197534e+01 0.0000000000000000e+00 0.0000000000000000e+00 0.0000000000000000e+00 0.0000000000000000e+00  3.7789546470351382e+01 7.3680216858568510e+00 0.0000000000000000e+00 7.3680216858568510e+00 -1.4835370716814540e+00 0.0000000000000000e+00 0.0000000000000000e+00 0.0000000000000000e+00 0.0000000000000000e+00  3.5243826230890910e+01 -2.0659773007544499e-01 0.0000000000000000e+00 -2.0659773007544499e-01 -8.1416974732866567e+00 0.0000000000000000e+00 0.0000000000000000e+00 0.0000000000000000e+00 0.0000000000000000e+00  9.9501937909630236e+00 -3.4476705142925788e+00 0.0000000000000000e+00 -3.4476705142925788e+00 9.9895836415699790e+00 0.0000000000000000e+00 0.0000000000000000e+00 0.0000000000000000e+00 0.0000000000000000e+00  -1.2351539521408335e-01 6.3560579828835628e-01 0.0000000000000000e+00 6.3560579828835628e-01 2.0799681431973703e+01 0.0000000000000000e+00 0.0000000000000000e+00 0.0000000000000000e+00 0.0000000000000000e+00  5.7933237818229388e+00 -8.9820528381906222e+00 0.0000000000000000e+00 -8.9820528381906222e+00 2.0565492140333106e+00 0.0000000000000000e+00 0.0000000000000000e+00 0.0000000000000000e+00 0.0000000000000000e+00  -6.6770681860862254e+01 3.3950724886185554e+01 0.0000000000000000e+00 3.3950724886185554e+01 -1.0477887416110377e+01 0.0000000000000000e+00 0.0000000000000000e+00 0.0000000000000000e+00 0.0000000000000000e+00  6.6408564602132898e+01 4.0103242275075985e+01 0.0000000000000000e+00 4.0103242275075985e+01 1.5401483333529027e+01 0.0000000000000000e+00 0.0000000000000000e+00 0.0000000000000000e+00 0.0000000000000000e+00  1.0222166172144235e+01 1.6003521129410093e+01 0.0000000000000000e+00 1.6003521129410093e+01 8.4504064326643071e+00 0.0000000000000000e+00 0.0000000000000000e+00 0.0000000000000000e+00 0.0000000000000000e+00  -7.8376267183999220e+00 8.1874123258093434e-01 0.0000000000000000e+00 8.1874123258093434e-01 -1.6857662196927112e+01 0.0000000000000000e+00 0.0000000000000000e+00 0.0000000000000000e+00 0.0000000000000000e+00  1.9213737846861221e+01 1.8216121527538029e+01 0.0000000000000000e+00 1.8216121527538029e+01 2.1050133266114113e+01 0.0000000000000000e+00 0.0000000000000000e+00 0.0000000000000000e+00 0.0000000000000000e+00  -1.7196652628600429e+01 5.0096510332079767e+00 0.0000000000000000e+00 5.0096510332079767e+00 -5.2325049549254405e+00 0.0000000000000000e+00 0.0000000000000000e+00 0.0000000000000000e+00 0.0000000000000000e+00  -1.8236241399374400e+01 -3.0263638214636255e+00 0.0000000000000000e+00 -3.0263638214636255e+00 -7.9127225003568107e+00 0.0000000000000000e+00 0.0000000000000000e+00 0.0000000000000000e+00 0.0000000000000000e+00  -1.2620037516757621e+00 -4.1769690745261876e+01 0.0000000000000000e+00 -4.1769690745261876e+01 7.8305967324592602e+00 0.0000000000000000e+00 0.0000000000000000e+00 0.0000000000000000e+00 0.0000000000000000e+00  4.4644770103758260e+00 -1.0831908469235330e+00 0.0000000000000000e+00 -1.0831908469235330e+00 4.4559946736957095e+00 0.0000000000000000e+00 0.0000000000000000e+00 0.0000000000000000e+00 0.0000000000000000e+00  2.1922890845878569e+00 1.1033409471949527e+00 0.0000000000000000e+00 1.1033409471949529e+00 2.1263725445498136e+00 0.0000000000000000e+00 0.0000000000000000e+00 0.0000000000000000e+00 0.0000000000000000e+00  4.1366305618496400e+00 -1.7884998631138960e-01 0.0000000000000000e+00 -1.7884998631138960e-01 4.1354642927130989e+00 0.0000000000000000e+00 0.0000000000000000e+00 0.0000000000000000e+00 0.0000000000000000e+00  -1.8648116927864924e+00 -2.8391324760523182e+00 0.0000000000000000e+00 -2.8391324760523182e+00 -2.2980933502078509e+00 0.0000000000000000e+00 0.0000000000000000e+00 0.0000000000000000e+00 0.0000000000000000e+00  5.4476426823194233e+00 2.6715590709015458e+00 0.0000000000000000e+00 2.6715590709015458e+00 5.6716472592551250e+00 0.0000000000000000e+00 0.0000000000000000e+00 0.0000000000000000e+00 0.0000000000000000e+00  1.2728367900899830e+01 2.4091764019402424e+00 0.0000000000000000e+00 2.4091764019402424e+00 1.2693275275719023e+01 0.0000000000000000e+00 0.0000000000000000e+00 0.0000000000000000e+00 0.0000000000000000e+00  1.4934608582977718e+01 -1.8069125170086888e+00 0.0000000000000000e+00 -1.8069125170086888e+00 1.4933462187758220e+01 0.0000000000000000e+00 0.0000000000000000e+00 0.0000000000000000e+00 0.0000000000000000e+00  -7.1975884726592829e+00 -1.6931973475781504e+01 0.0000000000000000e+00 -1.6931973475781504e+01 -7.4790107922026356e+00 0.0000000000000000e+00 0.0000000000000000e+00 0.0000000000000000e+00 0.0000000000000000e+00  -1.7348093354654091e+00 1.8659707598380702e+01 0.0000000000000000e+00 1.8659707598380702e+01 1.6668456622167545e+00 0.0000000000000000e+00 0.0000000000000000e+00 0.0000000000000000e+00 0.0000000000000000e+00  -1.5512907289840740e+01 -1.8943954334847493e+01 0.0000000000000000e+00 -1.8943954334847493e+01 -1.2685789986635235e+01 0.0000000000000000e+00 0.0000000000000000e+00 0.0000000000000000e+00 0.0000000000000000e+00  -2.6472386934410417e+00 -3.0349255720004322e+00 0.0000000000000000e+00 -3.0349255720004322e+00 -2.6885634344065297e+00 0.0000000000000000e+00 0.0000000000000000e+00 0.0000000000000000e+00 0.0000000000000000e+00  -1.7010691157862766e+01 2.1316337087391478e+01 0.0000000000000000e+00 2.1316337087391478e+01 -1.2772533643655480e+01 0.0000000000000000e+00 0.0000000000000000e+00 0.0000000000000000e+00 0.0000000000000000e+00  9.5354357036034330e+00 -3.0050980621574124e+00 0.0000000000000000e+00 -3.0050980621574124e+00 9.5691458181940661e+00 0.0000000000000000e+00 0.0000000000000000e+00 0.0000000000000000e+00 0.0000000000000000e+00  -2.8043417891333746e+00 -2.2626938439051623e+00 0.0000000000000000e+00 -2.2626938439051623e+00 -2.8115935088875244e+00 0.0000000000000000e+00 0.0000000000000000e+00 0.0000000000000000e+00 0.0000000000000000e+00  1.8055186191375551e+01 -3.0434527776295255e+01 0.0000000000000000e+00 -3.0434527776295255e+01 -4.0769184912973362e+00 0.0000000000000000e+00 0.0000000000000000e+00 0.0000000000000000e+00 0.0000000000000000e+00  -2.3632509258044003e+01 -4.3070209284867047e+01 0.0000000000000000e+00 -4.3070209284867047e+01 -3.9272180848917828e+00 0.0000000000000000e+00 0.0000000000000000e+00 0.0000000000000000e+00 0.0000000000000000e+00  -1.0046945302301280e+01 6.1498348348467031e+00 0.0000000000000000e+00 6.1498348348467031e+00 -9.1361529913353721e+00 0.0000000000000000e+00 0.0000000000000000e+00 0.0000000000000000e+00 0.0000000000000000e+00  1.0036171579620458e+01 2.7375291987800274e+00 0.0000000000000000e+00 2.7375291987800274e+00 1.0192224190526355e+01 0.0000000000000000e+00 0.0000000000000000e+00 0.0000000000000000e+00 0.0000000000000000e+00  -4.9637719724305258e+00 -2.4896190254889157e+00 0.0000000000000000e+00 -2.4896190254889157e+00 -5.2548601314601999e+00 0.0000000000000000e+00 0.0000000000000000e+00 0.0000000000000000e+00 0.0000000000000000e+00  1.3704168602128110e+01 -1.7805976135316350e+00 0.0000000000000000e+00 -1.7805976135316350e+00 1.3738021454696060e+01 0.0000000000000000e+00 0.0000000000000000e+00 0.0000000000000000e+00 0.0000000000000000e+00  2.5339685561443739e+00 -9.1211078528054448e-02 0.0000000000000000e+00 -9.1211078528054448e-02 2.8160266587029001e+00 0.0000000000000000e+00 0.0000000000000000e+00 0.0000000000000000e+00 0.0000000000000000e+00  -3.6749953122328756e+00 -3.2160879487400544e+00 0.0000000000000000e+00 -3.2160879487400544e+00 -3.6996842515708650e+00 0.0000000000000000e+00 0.0000000000000000e+00 0.0000000000000000e+00 0.0000000000000000e+00  -1.5652667634958999e+00 -2.8705994978865896e+00 0.0000000000000000e+00 -2.8705994978865896e+00 -1.5379816974870018e+00 0.0000000000000000e+00 0.0000000000000000e+00 0.0000000000000000e+00 0.0000000000000000e+00  7.8173257946306149e+00 -6.5737398440475769e-01 0.0000000000000000e+00 -6.5737398440475758e-01 7.8027479537893161e+00 0.0000000000000000e+00 0.0000000000000000e+00 0.0000000000000000e+00 0.0000000000000000e+00  4.9435788594880252e+00 -1.8962248635390780e-01 0.0000000000000000e+00 -1.8962248635390766e-01 4.9344100011423269e+00 0.0000000000000000e+00 0.0000000000000000e+00 0.0000000000000000e+00 0.0000000000000000e+00  -3.4165258024263170e+00 -2.6477306036435135e+00 0.0000000000000000e+00 -2.6477306036435135e+00 -3.4037189972866098e+00 0.0000000000000000e+00 0.0000000000000000e+00 0.0000000000000000e+00 0.0000000000000000e+00  1.0556767493459660e+00 6.3829045833940889e-01 0.0000000000000000e+00 6.3829045833940889e-01 1.0216449412808564e+00 0.0000000000000000e+00 0.0000000000000000e+00 0.0000000000000000e+00 0.0000000000000000e+00  -6.7824156453199871e+00 2.1136548240765698e-01 0.0000000000000000e+00 2.1136548240765698e-01 -7.3438007215121930e+00 0.0000000000000000e+00 0.0000000000000000e+00 0.0000000000000000e+00 0.0000000000000000e+00  -6.1774908892826530e-01 -2.6957622959670311e+00 0.0000000000000000e+00 -2.6957622959670311e+00 -7.2108182306280189e-01 0.0000000000000000e+00 0.0000000000000000e+00 0.0000000000000000e+00 0.0000000000000000e+00  -3.7241301375199294e+00 -1.0967034085377858e+00 0.0000000000000000e+00 -1.0967034085377858e+00 -4.2409335757218081e+00 0.0000000000000000e+00 0.0000000000000000e+00 0.0000000000000000e+00 0.0000000000000000e+00  -6.4068453793363753e+00 -2.8365902469431430e+00 0.0000000000000000e+00 -2.8365902469431430e+00 -6.5592888596362453e+00 0.0000000000000000e+00 0.0000000000000000e+00 0.0000000000000000e+00 0.0000000000000000e+00  7.5077616168305834e+00 -2.4669120640157030e-01 0.0000000000000000e+00 -2.4669120640157030e-01 7.7902932965592235e+00 0.0000000000000000e+00 0.0000000000000000e+00 0.0000000000000000e+00 0.0000000000000000e+00  1.9329547753232973e+01 1.9209660404158917e+00 0.0000000000000000e+00 1.9209660404158913e+00 1.9387886245958011e+01 0.0000000000000000e+00 0.0000000000000000e+00 0.0000000000000000e+00 0.0000000000000000e+00  3.7432597765079629e+00 4.5899633752141589e-01 0.0000000000000000e+00 4.5899633752141589e-01 3.7962628035748001e+00 0.0000000000000000e+00 0.0000000000000000e+00 0.0000000000000000e+00 0.0000000000000000e+00  1.3938704789946168e+01 2.8888081635529801e+00 0.0000000000000000e+00 2.8888081635529801e+00 1.4028732443121582e+01 0.0000000000000000e+00 0.0000000000000000e+00 0.0000000000000000e+00 0.0000000000000000e+00  1.5635954840278250e+01 2.4197118682942103e+00 0.0000000000000000e+00 2.4197118682942103e+00 1.5791992977025306e+01 0.0000000000000000e+00 0.0000000000000000e+00 0.0000000000000000e+00 0.0000000000000000e+00  -1.6032764410450486e+01 1.3765268340900498e+01 0.0000000000000000e+00 1.3765268340900498e+01 -5.4446798778117662e+00 0.0000000000000000e+00 0.0000000000000000e+00 0.0000000000000000e+00 0.0000000000000000e+00  1.4591749926590623e+01 1.9025689176401286e+01 0.0000000000000000e+00 1.9025689176401286e+01 1.5116605468636719e+01 0.0000000000000000e+00 0.0000000000000000e+00 0.0000000000000000e+00 0.0000000000000000e+00  1.6623413223501748e+00 -1.6647082350530746e+00 0.0000000000000000e+00 -1.6647082350530746e+00 1.5254282313934489e+00 0.0000000000000000e+00 0.0000000000000000e+00 0.0000000000000000e+00 0.0000000000000000e+00  2.0011111777699359e+01 2.9806589377219077e+00 0.0000000000000000e+00 2.9806589377219077e+00 1.9995578097117374e+01 0.0000000000000000e+00 0.0000000000000000e+00 0.0000000000000000e+00