<?xml version="1.0"?>
<VTKFile type="UnstructuredGrid"  version="0.1"  >
<UnstructuredGrid>
<Piece  NumberOfPoints="5185" NumberOfCells="10070">
<Points>
<DataArray  type="Float64"  NumberOfComponents="3"  format="ascii">0 1.5 0  0 0 0  0.1232405621108402 0 0  0.1232405621108402 0.02253860454731437 0  0.1476111412843772 0.06045996594834066 0  0.1886148129381372 0.07918571535047463 0  0.2332332010401509 0.07277055962836147 0  0.2673002826264945 0.0432512653964478 0  0.28 0 0  0.5342215165449864 0 0  0.5342215165449864 0.02394141003279682 0  0.5649999999999999 0.06062177826491071 0  0.6121553724366851 0.06893654271085457 0  0.6536231110183285 0.04499513267805775 0  0.6699999999999999 0 0  0.91 0 0  0.9220577136594005 0.04499999999999999 0  0.9550000000000001 0.07794228634059948 0  1 0.09 0  1.045 0.07794228634059946 0  1.077942286340599 0.04499999999999999 0  1.09 0 0  1.52324056211084 0 0  1.52324056211084 0.02253860454731437 0  1.547611141284377 0.06045996594834066 0  1.588614812938137 0.07918571535047463 0  1.633233201040151 0.07277055962836147 0  1.667300282626495 0.0432512653964478 0  1.68 0 0  1.84 0 0  1.857573593128807 0.04242640687119285 0  1.9 0.06 0  1.942426406871193 0.04242640687119285 0  1.96 0 0  2.22324056211084 0 0  2.22324056211084 0.02253860454731437 0  2.247611141284377 0.06045996594834066 0  2.288614812938137 0.07918571535047463 0  2.333233201040151 0.07277055962836147 0  2.367300282626494 0.0432512653964478 0  2.38 0 0  2.534221516544986 0 0  2.534221516544986 0.02394141003279682 0  2.565 0.06062177826491071 0  2.612155372436685 0.06893654271085457 0  2.653623111018328 0.04499513267805775 0  2.67 0 0  3 0 0  3 1.5 0  0 0.75 0  1.5 1.5 0  0 0.375 0  0.75 1.5 0  2.25 1.5 0  3 0.75 0  1.216228490499689 0.8069757125887627 0  1.965682393638027 0.8065702515463131 0  0.6025408912810675 0.8974591087189325 0  2.494676348647751 0.9946763486477508 0  2.356709259621435 0.5447946099875809 0  0.8599642199210003 0.5226206461323684 0  0.4216394361293908 0.4974105777134379 0  0.375 1.5 0  0 1.125 0  1.875 1.5 0  1.591091407334617 1.058091082812092 0  1.125 1.5 0  1.590810830624645 0.5394732912049653 0  0.9375 1.13479915923725 0  3 0.375 0  3 1.125 0  2.625 1.5 0  1.995245765771775 0.4277948434396763 0  2.145880954246818 1.137688199332401 0  1.227783477957362 0.427141979786574 0  2.705436295205127 0.5625 0  1.268702849688826 1.133996222613609 0  0.3526676910824388 1.147332308917561 0  0.3097907151415997 0.7889144057821572 0  0.903221947180751 0.828141240074398 0  0.6461527570085278 1.190944174645022 0  2.258488242757536 0.8210127920483788 0  2.400058919161888 1.260760484185309 0  2.778889354513028 0.9375 0  2.725079155390203 1.225079155390203 0  1.853608154101008 1.201589046866999 0  2.540576981905353 0.3370046821869876 0  0.7811555507088518 0.2732832036972447 0  1.493222576519009 0.798835058995101 0  1.747409300790817 0.3184283662481822 0  1.459899526511598 0.3067772450698331 0  0.1875 1.5 0  0 0.5625 0  2.521594883841638 0.7403247928378012 0  0.2438476629309629 0.32244155773108 0  3 0.1875 0  2.776470677837637 0.28125 0  2.121241022911138 0.6281701698960991 0  1.728545483402697 0.8581016441191361 0  1.012422318322288 0.3271268474523591 0  2.305755967143385 0.3144626442661202 0  1.30662028105542 0 0  1.6875 1.5 0  1.8265892939935 0.6051726401583923 0  0.5458598773451642 0.2962606377138959 0  0 0.9375 0  1.349377516922966 0.6209336375388498 0  1.079656249611334 0.612728400373996 0  0.7151087041654347 0.6989529576230681 0  2.0625 1.5 0  1.59375 1.288981971791887 0  2.085107439753329 0.2191742438537923 0  0.6402689932842839 0.4934943541428904 0  1.228474271256239 0.2064231070567615 0  1.3125 1.5 0  1.06968030723948 0.9647793670181679 0  0.2113350105157037 0.5332932754427466 0  0 1.3125 0  0.5051540211699285 0.7110632261327643 0  0.4775171365050886 1.316467280173536 0  1.967112413780365 1.020384154410382 0  0.8191736043349165 1.304781661824189 0  1.103455205015878 1.280328263155604 0  0.7649318329201844 1.023310716596371 0  0.2120544860962804 0.9823800432730223 0  1.359100570345391 0.9517705003379791 0  0.1711043107784345 1.21875 0  3 1.3125 0  2.8125 1.5 0  2.714178691455841 0.7554813872281284 0  2.217815962767571 1.313132398873298 0  2.020480176543968 1.307095379623413 0  2.29875620117699 1.013690599387144 0  0.3848285295772316 0.1937040883803935 0  0.9375 1.5 0  3 0.9375 0  2.4375 1.5 0  3 0.5625 0  0 0.1875 0  0.5625 1.5 0  2.835 0 0  1.386383673099448 1.305536509588035 0  1.773513842966063 1.0362399691084 0  2.179843036592861 0.4515211056338026 0  0.4134910794700652 0.9582824971065591 0  2.107214813096467 0.9125353945687058 0  1.916698009609654 0.2702971158297667 0  2.533006985360663 0.5155509623987015 0  2.838574938309606 0.4465309273225452 0  0.3016597101560133 1.338635596991575 0  1.641573393474498 0.7066136805426366 0  2.855238878880983 0.65625 0  1.398074618385877 0.1459865472102536 0  1.756539173374812 1.342993235461221 0  2.434593137832078 0.2067018044975929 0  1.434366740555482 0.4743139981449843 0  1.440742946818836 1.142108619191562 0  0.549043549720087 1.055391704395 0  2.571565919072277 1.32487216700893 0  2.535776521770127 1.159155922815097 0  2.652193336606067 1.04269083214613 0  0.660031172970541 1.35825582857438 0  2.607645482283307 0.8780318994093907 0  1.09590027081365 1.121554905778777 0  0.1474979543625655 0.8283466240195498 0  1.056776372361757 0.7739494406659941 0  0.3647560414155882 0.6427945145874604 0  1.699724067482516 1.17405657891935 0  0.913786173488833 0.9822051271795349 0  0.9283491691592597 0.66876089182342 0  0.7498959802087029 0.8498501951910959 0  0.3951228082283652 0.3465404522808934 0  1.23887612906836 1.360760366473919 0  0.1206420558503055 0.65625 0  1.735537276557186 0.4760109437618505 0  1.799297742536812 0.1791526413061006 0  1.970987958006469 0.6541756362249113 0  1.080810552147559 0.461742062484039 0  2.268149337929528 0.6688757993926466 0  2.413602460817152 0.8574959373397593 0  2.833998248858927 1.096635576389 0  2.71875 1.378451438260757 0  2.001906612723158 1.162230131308666 0  2.859452984352005 0.8083820929207302 0  2.688478120768856 0.4086214703657035 0  1.214106348747711 0.9519545202622776 0  2.850368184690094 1.307066142740315 0  1.864893983840636 0.9141560734025058 0  1.60661446108863 0.2395589708587393 0  1.61163060570479 0.3901968276506504 0  2.771867619212225 0.1335769833684914 0  0.7969119039620236 1.163109784140262 0  0.9599416701963486 1.276596315583475 0  2.103624150445193 0.7698297553089299 0  2.279721363034605 1.185280797873663 0  2.34375 1.392122382816539 0  0.1382307077648764 1.361769292235123 0  0.1426478344893104 0.2175212356047023 0  2.406413880432258 1.104106228251116 0  2.414971181397263 0.4111042519521358 0  2.637277274673136 0.2192348292007474 0  1.353600469573883 0.7646239317376279 0  1.494012125944227 0.651091825511382 0  1.590274899157226 0.9102986199774393 0  1.028633500752755 1.396325660524358 0  1.829615743479497 0.7518128394998403 0  1.861059000344659 0.3963812297683985 0  0.510900777690535 1.185277566959035 0  1.213080286311768 0.6640546084318578 0  0.79 0 0  0.8167897395818556 0.1376517357725223 0  0.9319739747594649 0.2144569310211157 0  1.889188139713804 1.330032757791382 0  0.655714683266079 0.2049689967103183 0  2.09162028105542 0 0  0.1359367774292784 0.4137345801986589 0  0.4380798275211911 0.8267965724704243 0  2.40400705830434 0.6721965963037969 0  0.3027633520173528 0.4394586980387968 0  0.8782788855287165 0.379708545377904 0  0.7595213470930909 0.4371189613680841 0  1.317967779309324 0.3170637160852436 0  0.6053759621699666 0.6225641226781395 0  0.6530309552265516 0.3661735489900947 0  2.594089294631991 0.631328821944253 0  0 1.03125 0  0.1304283746114646 1.089970844689444 0  0.4071107582724932 0 0  1.469526282978338 1.017083854458662 0  1.088959023533499 0.2104112015424126 0  1.161808378403757 0.3165749773273478 0  2.172966779463329 0.3188379172988492 0  2.216343768168092 0.1920401700474863 0  3 0.09375 0  1.905024675365066 0.5108806275986008 0  1.702014103004408 0.5963171944847371 0  0.2428042557945101 0.6514309613450368 0  3 1.40625 0  0.262372466757009 0.191725613649506 0  2.116791485436391 1.387145016777417 0  1.96875 1.5 0  2.885528053432104 0.3345800153572822 0  2.875601419873791 0.2042517854891826 0  2.298911783255236 0.4400662366556407 0  2.459247322083259 1.363881377923602 0  0.9735587139454543 0.5585353431007029 0  1.176315140569268 0.5379697839544898 0  2.0296370010214 0.5459700999805513 0  0.4987416453488727 0.4060939323248423 0  0.5397511702990104 0.1771676763212877 0  3 1.21875 0  2.238710633113112 0.5542203056099733 0  1.19831014052771 0 0  1.583962270593198 1.173633921912192 0  1.650563144166832 1.390075718520202 0  1.496025571730155 1.371899864460592 0  3 1.03125 0  2.887481932992674 0.9890041589451042 0  0.247836885460272 1.094286258989912 0  0.4719220056590702 0.6009044603312741 0  1.97565550452845 0.1615660574331665 0  2.131135530378305 0.1108580974478677 0  1.318642333542132 0.5051755928544708 0  1.217460132329928 1.242599824876711 0  1.511891312109549 0.1714963794002952 0  2.174601400318987 1.01685942781215 0  0.9082882406313817 1.384236564302014 0  0.6140422604397168 0.7728109899968187 0  0.8289359680247524 0.7347587321432018 0  0.741509926624258 0.5729763888559004 0  2.058356323822746 0.3313153147701495 0  0.4534336320756143 0.1034622594748756 0  1.40625 1.5 0  1.689084537897351 0.9628079283127213 0  1.156270839633873 0.1228556218721798 0  1.29033806179015 0.1118395069726669 0  1.460859151915469 0.9057320169622244 0  2.326558662668462 0.1831424028173474 0  0.9693052477371982 0.4460054238200853 0  0.6625304018229865 1.076650755704414 0  1.41493042158313 0 0  0.4485426513928407 1.096421738127594 0  0.2454589766548061 0.8778352103982039 0  0.1115239912906509 0.9339683416032414 0  1.134782462834443 0.8782884736059876 0  0.9999448991609674 1.04695529392896 0  0.9835215815673453 0.9000292002687431 0  2.53125 1.5 0  0.3175564878698739 1.010319294269645 0  1.971944763694389 0.9134401013848152 0  2.06
[...]
<PointData  Tensors="f_1252"> 
<DataArray  type="Float64"  Name="f_1252"  NumberOfComponents="9" format="ascii">-1.9025460880275562e+00 -3.0192487910531103e+00 0.0000000000000000e+00 -3.0192487910531103e+00 -1.9728282178233357e+01 0.0000000000000000e+00 0.0000000000000000e+00 0.0000000000000000e+00 0.0000000000000000e+00  3.1903310710676422e+01 4.0611199477786331e+00 0.0000000000000000e+00 4.0611199477786331e+00 3.6611561228046774e+01 0.0000000000000000e+00 0.0000000000000000e+00 0.0000000000000000e+00 0.0000000000000000e+00  5.1257957877674784e+01 -1.1878035715842394e+01 0.0000000000000000e+00 -1.1878035715842394e+01 1.1618791599765270e+01 0.0000000000000000e+00 0.0000000000000000e+00 0.0000000000000000e+00 0.0000000000000000e+00  9.1993374026897925e+01 1.9536975528176630e+01 0.0000000000000000e+00 1.9536975528176630e+01 -4.4157776496424852e+01 0.0000000000000000e+00 0.0000000000000000e+00 0.0000000000000000e+00 0.0000000000000000e+00  1.0193839431261684e+02 8.2062808014501432e+00 0.0000000000000000e+00 8.2062808014501432e+00 -6.0856716623497768e+01 0.0000000000000000e+00 0.0000000000000000e+00 0.0000000000000000e+00 0.0000000000000000e+00  3.4444736597924681e+01 6.1573953350989456e+01 0.0000000000000000e+00 6.1573953350989456e+01 2.9130553614680579e+01 0.0000000000000000e+00 0.0000000000000000e+00 0.0000000000000000e+00 0.0000000000000000e+00  6.3643542962878087e+01 5.4883045182713438e+01 0.0000000000000000e+00 5.4883045182713438e+01 -6.6553082314700314e+00 0.0000000000000000e+00 0.0000000000000000e+00 0.0000000000000000e+00 0.0000000000000000e+00  1.1755486168293235e+01 3.0188665061880222e+01 0.0000000000000000e+00 3.0188665061880222e+01 4.2066130366166838e+01 0.0000000000000000e+00 0.0000000000000000e+00 0.0000000000000000e+00 0.0000000000000000e+00  2.0283628261560970e+01 -4.9882127616760714e+00 0.0000000000000000e+00 -4.9882127616760714e+00 3.9624437177837983e+01 0.0000000000000000e+00 0.0000000000000000e+00 0.0000000000000000e+00 0.0000000000000000e+00  1.7009742126887996e+01 1.0775794339677072e+00 0.0000000000000000e+00 1.0775794339677072e+00 3.2663322282833072e+01 0.0000000000000000e+00 0.0000000000000000e+00 0.0000000000000000e+00 0.0000000000000000e+00  -7.1332343872638020e+01 -4.4274244725608412e+01 0.0000000000000000e+00 -4.4274244725608412e+01 1.0058344867748755e+02 0.0000000000000000e+00 0.0000000000000000e+00 0.0000000000000000e+00 0.0000000000000000e+00  -9.0180813959772323e+01 1.6076524048751757e+01 0.0000000000000000e+00 1.6076524048751757e+01 1.3727968822700180e+02 0.0000000000000000e+00 0.0000000000000000e+00 0.0000000000000000e+00 0.0000000000000000e+00  -5.2049759925651813e+00 -9.3558804289371675e+00 0.0000000000000000e+00 -9.3558804289371675e+00 8.3386384973610163e+01 0.0000000000000000e+00 0.0000000000000000e+00 0.0000000000000000e+00 0.0000000000000000e+00  -1.0055774130192908e+02 2.2250799983961741e+01 0.0000000000000000e+00 2.2250799983961741e+01 1.3866386857540789e+02 0.0000000000000000e+00 0.0000000000000000e+00 0.0000000000000000e+00 0.0000000000000000e+00  2.7878236390053985e+01 8.9586518475428054e+00 0.0000000000000000e+00 8.9586518475428054e+00 3.3815839176793737e+01 0.0000000000000000e+00 0.0000000000000000e+00 0.0000000000000000e+00 0.0000000000000000e+00  1.8625172610168061e+01 -1.5795604400978661e+01 0.0000000000000000e+00 -1.5795604400978661e+01 4.9055985675363779e+01 0.0000000000000000e+00 0.0000000000000000e+00 0.0000000000000000e+00 0.0000000000000000e+00  -2.7069020970176457e+01 -4.8647876375191771e+01 0.0000000000000000e+00 -4.8647876375191771e+01 7.5358534846680314e+01 0.0000000000000000e+00 0.0000000000000000e+00 0.0000000000000000e+00 0.0000000000000000e+00  1.8846640567554520e+01 -4.7286740392876638e+01 0.0000000000000000e+00 -4.7286740392876638e+01 2.0088400528377594e+01 0.0000000000000000e+00 0.0000000000000000e+00 0.0000000000000000e+00 0.0000000000000000e+00  3.2097827723373356e+01 -7.0698374870690714e+01 0.0000000000000000e+00 -7.0698374870690714e+01 6.5173149579312428e-01 0.0000000000000000e+00 0.0000000000000000e+00 0.0000000000000000e+00 0.0000000000000000e+00  8.5873364388987980e+01 8.6917215465986128e+00 0.0000000000000000e+00 8.6917215465986128e+00 -4.4554132013732776e+01 0.0000000000000000e+00 0.0000000000000000e+00 0.0000000000000000e+00 0.0000000000000000e+00  1.3059192008412504e+02 -4.0643155407858892e+01 0.0000000000000000e+00 -4.0643155407858892e+01 -9.5126953447397753e+01 0.0000000000000000e+00 0.0000000000000000e+00 0.0000000000000000e+00 0.0000000000000000e+00  3.4890423451087663e+01 6.0990498531458934e+00 0.0000000000000000e+00 6.0990498531458934e+00 1.1107145365881609e+01 0.0000000000000000e+00 0.0000000000000000e+00 0.0000000000000000e+00 0.0000000000000000e+00  9.5130646744266567e+00 5.9659678605091315e+00 0.0000000000000000e+00 5.9659678605091315e+00 2.9181525174504372e+01 0.0000000000000000e+00 0.0000000000000000e+00 0.0000000000000000e+00 0.0000000000000000e+00  -1.0022842433000976e+01 -1.7983095158359951e+01 0.0000000000000000e+00 -1.7983095158359951e+01 5.5483508346058954e+01 0.0000000000000000e+00 0.0000000000000000e+00 0.0000000000000000e+00 0.0000000000000000e+00  2.1175033610966061e+01 -3.1475124342320491e+01 0.0000000000000000e+00 -3.1475124342320491e+01 2.3539798408968235e+01 0.0000000000000000e+00 0.0000000000000000e+00 0.0000000000000000e+00 0.0000000000000000e+00  2.0365683017943642e+01 -7.1114696755573235e+01 0.0000000000000000e+00 -7.1114696755573235e+01 4.2691389267419462e+00 0.0000000000000000e+00 0.0000000000000000e+00 0.0000000000000000e+00 0.0000000000000000e+00  8.6748586522327585e+01 -2.4965748259763789e+01 0.0000000000000000e+00 -2.4965748259763789e+01 -4.0463705429085749e+01 0.0000000000000000e+00 0.0000000000000000e+00 0.0000000000000000e+00 0.0000000000000000e+00  1.1768538579636031e+02 -2.2671225238069759e+01 0.0000000000000000e+00 -2.2671225238069759e+01 -8.9165090535510984e+01 0.0000000000000000e+00 0.0000000000000000e+00 0.0000000000000000e+00 0.0000000000000000e+00  6.2511967575373575e+01 2.0060234471488254e+01 0.0000000000000000e+00 2.0060234471488254e+01 -1.5322080354372874e+01 0.0000000000000000e+00 0.0000000000000000e+00 0.0000000000000000e+00 0.0000000000000000e+00  2.4966168425691958e+01 -4.0678806116617777e-01 0.0000000000000000e+00 -4.0678806116617777e-01 1.0713040354664887e+01 0.0000000000000000e+00 0.0000000000000000e+00 0.0000000000000000e+00 0.0000000000000000e+00  4.9420384773987358e+01 -1.8725458399118772e+01 0.0000000000000000e+00 -1.8725458399118772e+01 8.1047026298312841e-02 0.0000000000000000e+00 0.0000000000000000e+00 0.0000000000000000e+00 0.0000000000000000e+00  3.2887785589849528e+01 -8.3492305062823590e+01 0.0000000000000000e+00 -8.3492305062823590e+01 8.8835290023081335e+00 0.0000000000000000e+00 0.0000000000000000e+00 0.0000000000000000e+00 0.0000000000000000e+00  6.6776894147690442e+01 -2.3380676343268362e+01 0.0000000000000000e+00 -2.3380676343268362e+01 -3.2784052779780531e+01 0.0000000000000000e+00 0.0000000000000000e+00 0.0000000000000000e+00 0.0000000000000000e+00  4.8638348834836243e+01 5.7659420768138689e+00 0.0000000000000000e+00 5.7659420768138689e+00 -1.9604192889859625e+01 0.0000000000000000e+00 0.0000000000000000e+00 0.0000000000000000e+00 0.0000000000000000e+00  1.7515768970969685e+01 -2.8869299628410601e+00 0.0000000000000000e+00 -2.8869299628410601e+00 8.2018282100184461e+00 0.0000000000000000e+00 0.0000000000000000e+00 0.0000000000000000e+00 0.0000000000000000e+00  9.0831207659441731e+01 2.3945549541078147e+01 0.0000000000000000e+00 2.3945549541078147e+01 -3.8156401825557914e+01 0.0000000000000000e+00 0.0000000000000000e+00 0.0000000000000000e+00 0.0000000000000000e+00  9.3513831330878872e+01 -1.2176750581577013e+01 0.0000000000000000e+00 -1.2176750581577013e+01 -8.1381457133404808e+01 0.0000000000000000e+00 0.0000000000000000e+00 0.0000000000000000e+00 0.0000000000000000e+00  3.6590996784509819e+01 1.6001272026017549e+01 0.0000000000000000e+00 1.6001272026017549e+01 -7.4358902493140882e+00 0.0000000000000000e+00 0.0000000000000000e+00 0.0000000000000000e+00 0.0000000000000000e+00  7.2018463570202220e+00 2.5757995543831601e+01 0.0000000000000000e+00 2.5757995543831601e+01 2.6722339627261629e+01 0.0000000000000000e+00 0.0000000000000000e+00 0.0000000000000000e+00 0.0000000000000000e+00  -4.8613798591394307e+01 4.9479968121030403e+01 0.0000000000000000e+00 4.9479968121030403e+01 7.8201810838009919e+01 0.0000000000000000e+00 0.0000000000000000e+00 0.0000000000000000e+00 0.0000000000000000e+00  1.6807256666025003e+00 -6.9079746559837851e-01 0.0000000000000000e+00 -6.9079746559837851e-01 3.3844107702332273e+01 0.0000000000000000e+00 0.0000000000000000e+00 0.0000000000000000e+00 0.0000000000000000e+00  2.0989821569364182e+01 -6.3182677605695234e+00 0.0000000000000000e+00 -6.3182677605695234e+00 2.7435521858468235e+00 0.0000000000000000e+00 0.0000000000000000e+00 0.0000000000000000e+00 0.0000000000000000e+00  1.0526378221020909e+02 2.0603074242283213e+01 0.0000000000000000e+00 2.0603074242283213e+01 -5.4873325261209573e+01 0.0000000000000000e+00 0.0000000000000000e+00 0.0000000000000000e+00 0.0000000000000000e+00  1.0298634707965554e+02 -2.1814363421468972e+01 0.0000000000000000e+00 -2.1814363421468972e+01 -8.5086857422358079e+01 0.0000000000000000e+00 0.0000000000000000e+00 0.0000000000000000e+00 0.0000000000000000e+00  -2.8514464475777785e+00 -1.5960873313983962e+01 0.0000000000000000e+00 -1.5960873313983962e+01 2.5204985712548492e+01 0.0000000000000000e+00 0.0000000000000000e+00 0.0000000000000000e+00 0.0000000000000000e+00  -9.2094833195887531e+01 3.8687044367751810e+01 0.0000000000000000e+00 3.8687044367751810e+01 1.2309749920434686e+02 0.0000000000000000e+00 0.0000000000000000e+00 0.0000000000000000e+00 0.0000000000000000e+00  1.0761824911829154e+00 -6.1357542320225997e+00 0.0000000000000000e+00 -6.1357542320225997e+00 7.6890681210599023e+00 0.0000000000000000e+00 0.0000000000000000e+00 0.0000000000000000e+00 0.0000000000000000e+00  -3.9535000832909373e+02 1.4490198955311220e+02 0.0000000000000000e+00 1.4490198955311220e+02 3.6981777940146259e+01 0.0000000000000000e+00 0.0000000000000000e+00 0.0000000000000000e+00 0.0000000000000000e+00  4.0081121414856284e+02 2.4503666325578706e+02 0.0000000000000000e+00 2.4503666325578706e+02 9.1218838533497873e+01 0.0000000000000000e+00 0.0000000000000000e+00 0.0000000000000000e+00 0.0000000000000000e+00  1.2998930109258104e+01 1.0929271953827109e+02 0.0000000000000000e+00 1.0929271953827109e+02 -1.3255257062468495e-01 0.0000000000000000e+00 0.0000000000000000e+00 0.0000000000000000e+00 0.0000000000000000e+00  5.2209064059097932e+00 6.7054344044263061e+00 0.0000000000000000e+00 6.7054344044263061e+00 -2.3991483696030649e+01 0.0000000000000000e+00 0.0000000000000000e+00 0.0000000000000000e+00 0.0000000000000000e+00  1.5761486676768541e+01 1.2001821954076684e+02 0.0000000000000000e+00 1.2001821954076684e+02 2.2045838360487675e+01 0.0000000000000000e+00 0.0000000000000000e+00 0.0000000000000000e+00 0.0000000000000000e+00  -2.3151027147997947e+01 2.0657514220537664e+01 0.0000000000000000e+00 2.0657514220537664e+01 2.3631306786714323e+00 0.0000000000000000e+00 0.0000000000000000e+00 0.0000000000000000e+00 0.0000000000000000e+00  -3.1081354880621131e+01 -2.4124511664027526e+01 0.0000000000000000e+00 -2.4124511664027526e+01 -4.5300265009322684e+00 0.0000000000000000e+00 0.0000000000000000e+00 0.0000000000000000e+00 0.0000000000000000e+00  -1.5870201717178494e+01 -2.2371139746983451e+02 0.0000000000000000e+00 -2.2371139746983451e+02 8.3879941380716314e+00 0.0000000000000000e+00 0.0000000000000000e+00 0.0000000000000000e+00 0.0000000000000000e+00  3.7797418957456199e+00 -1.0932427215976549e+01 0.0000000000000000e+00 -1.0932427215976549e+01 3.5379182829199318e+00 0.0000000000000000e+00 0.0000000000000000e+00 0.0000000000000000e+00 0.0000000000000000e+00  1.6655788619555965e+00 1.0515812228238932e+01 0.0000000000000000e+00 1.0515812228238934e+01 1.1912273990732209e+00 0.0000000000000000e+00 0.0000000000000000e+00 0.0000000000000000e+00 0.0000000000000000e+00  3.3620520143694641e+00 -1.8746289283803639e+00 0.0000000000000000e+00 -1.8746289283803639e+00 3.2509436651041934e+00 0.0000000000000000e+00 0.0000000000000000e+00 0.0000000000000000e+00 0.0000000000000000e+00  -3.0487417656140661e+00 -2.9112700885124315e+01 0.0000000000000000e+00 -2.9112700885124315e+01 -2.5820264322440063e+00 0.0000000000000000e+00 0.0000000000000000e+00 0.0000000000000000e+00 0.0000000000000000e+00  4.9638399547243477e+00 2.6135497684825623e+01 0.0000000000000000e+00 2.6135497684825616e+01 4.9640918436230672e+00 0.0000000000000000e+00 0.0000000000000000e+00 0.0000000000000000e+00 0.0000000000000000e+00  1.1819057293301913e+01 2.4568574213335133e+01 0.0000000000000000e+00 2.4568574213335133e+01 1.1848696060311418e+01 0.0000000000000000e+00 0.0000000000000000e+00 0.0000000000000000e+00 0.0000000000000000e+00  1.4306171999790408e+01 -1.8753237861829579e+01 0.0000000000000000e+00 -1.8753237861829579e+01 1.3791103697303836e+01 0.0000000000000000e+00 0.0000000000000000e+00 0.0000000000000000e+00 0.0000000000000000e+00  -1.0735563470054730e+01 -1.0277114175562494e+02 0.0000000000000000e+00 -1.0277114175562494e+02 -8.4785127861696257e+00 0.0000000000000000e+00 0.0000000000000000e+00 0.0000000000000000e+00 0.0000000000000000e+00  -4.3251195574922425e+00 1.1512420170397965e+02 0.0000000000000000e+00 1.1512420170397965e+02 1.6324872937351271e+00 0.0000000000000000e+00 0.0000000000000000e+00 0.0000000000000000e+00 0.0000000000000000e+00  -3.0977395338869840e+01 -1.1649097793773140e+02 0.0000000000000000e+00 -1.1649097793773140e+02 -5.8920201828743393e+00 0.0000000000000000e+00 0.0000000000000000e+00 0.0000000000000000e+00 0.0000000000000000e+00  -3.2074657418050787e+00 -3.0528196373199822e+01 0.0000000000000000e+00 -3.0528196373199822e+01 -3.7952125016537455e+00 0.0000000000000000e+00 0.0000000000000000e+00 0.0000000000000000e+00 0.0000000000000000e+00  -3.1122643361710850e+01 1.2517035533573176e+02 0.0000000000000000e+00 1.2517035533573176e+02 -1.0400728733464126e+01 0.0000000000000000e+00 0.0000000000000000e+00 0.0000000000000000e+00 0.0000000000000000e+00  8.6015077746632649e+00 -3.0219763024058640e+01 0.0000000000000000e+00 -3.0219763024058640e+01 9.0488976557900394e+00 0.0000000000000000e+00 0.0000000000000000e+00 0.0000000000000000e+00 0.0000000000000000e+00  -3.4697018661340890e+00 -2.3381015001794481e+01 0.0000000000000000e+00 -2.3381015001794481e+01 -3.9017890505990382e+00 0.0000000000000000e+00 0.0000000000000000e+00 0.0000000000000000e+00 0.0000000000000000e+00  1.3693193158306178e+02 -8.5369004980004775e+01 0.0000000000000000e+00 -8.5369004980004775e+01 1.4533556971532393e+01 0.0000000000000000e+00 0.0000000000000000e+00 0.0000000000000000e+00 0.0000000000000000e+00  -3.0920541403818714e+02 -4.5265420806224347e+02 0.0000000000000000e+00 -4.5265420806224347e+02 -3.0148940429605755e+01 0.0000000000000000e+00 0.0000000000000000e+00 0.0000000000000000e+00 0.0000000000000000e+00  -1.6228914596654253e+01 5.2822014234769192e+01 0.0000000000000000e+00 5.2822014234769192e+01 -1.2217986733747232e+01 0.0000000000000000e+00 0.0000000000000000e+00 0.0000000000000000e+00 0.0000000000000000e+00  9.3287452638580977e+00 2.7888587316494057e+01 0.0000000000000000e+00 2.7888587316494071e+01 9.7007850707998262e+00 0.0000000000000000e+00 0.0000000000000000e+00 0.0000000000000000e+00 0.0000000000000000e+00  -5.0735035870853444e+00 -2.4483111939904461e+01 0.0000000000000000e+00 -2.4483111939904461e+01 -6.9389804932077190e+00 0.0000000000000000e+00 0.0000000000000000e+00 0.0000000000000000e+00 0.0000000000000000e+00  1.2967733570433628e+01 -1.7485098933770768e+01 0.0000000000000000e+00 -1.7485098933770768e+01 1.2745055147053115e+01 0.0000000000000000e+00 0.0000000000000000e+00 0.0000000000000000e+00 0.0000000000000000e+00  9.3830703601765986e-01 -3.8263182274375565e+00 0.0000000000000000e+00 -3.8263182274375565e+00 3.6319385834860354e+00 0.0000000000000000e+00 0.0000000000000000e+00 0.0000000000000000e+00 0.0000000000000000e+00  -4.1803616341716312e+00 -3.2728255026973947e+01 0.0000000000000000e+00 -3.2728255026973947e+01 -4.4699820661344178e+00 0.0000000000000000e+00 0.0000000000000000e+00 0.0000000000000000e+00 0.0000000000000000e+00  -2.1716340479821254e+00 -2.9253591627886884e+01 0.0000000000000000e+00 -2.9253591627886884e+01 -2.3744638234222073e+00 0.0000000000000000e+00 0.0000000000000000e+00 0.0000000000000000e+00 0.0000000000000000e+00  7.1460872219898812e+00 -6.4070761188019665e+00 0.0000000000000000e+00 -6.4070761188019665e+00 6.8276048474679198e+00 0.0000000000000000e+00 0.0000000000000000e+00 0.0000000000000000e+00 0.0000000000000000e+00  4.2332979729568709e+00 -1.7693847567208549e+00 0.0000000000000000e+00 -1.7693847567208549e+00 3.8958083503604604e+00 0.0000000000000000e+00 0.0000000000000000e+00 0.0000000000000000e+00 0.0000000000000000e+00  -3.9891794418025111e+00 -2.7087509019287655e+01 0.0000000000000000e+00 -2.7087509019287651e+01 -4.3027952821465503e+00 0.0000000000000000e+00 0.0000000000000000e+00 0.0000000000000000e+00 0.0000000000000000e+00  6.2288108510381446e-01 6.0766614573331301e+00 0.0000000000000000e+00 6.0766614573331301e+00 -3.4156217099970798e-01 0.0000000000000000e+00 0.0000000000000000e+00 0.0000000000000000e+00 0.0000000000000000e+00  -5.1772252776406607e+00 5.4913369134687899e+00 0.0000000000000000e+00 5.4913369134687899e+00 -1.0514450822197643e+01 0.0000000000000000e+00 0.0000000000000000e+00 0.0000000000000000e+00 0.0000000000000000e+00  -2.5932108613970120e+00 -2.8600584959370131e+01 0.0000000000000000e+00 -2.8600584959370131e+01 2.3424949532258477e-01 0.0000000000000000e+00 0.0000000000000000e+00 0.0000000000000000e+00 0.0000000000000000e+00  -2.3984034686709035e+00 -4.1540749470495530e+00 0.0000000000000000e+00 -4.1540749470495530e+00 -7.7055269477258355e+00 0.0000000000000000e+00 0.0000000000000000e+00 0.0000000000000000e+00 0.0000000000000000e+00  -6.6084643752052816e+00 -2.8527723239081457e+01 0.0000000000000000e+00 -2.8527723239081457e+01 -8.2594715163398291e+00 0.0000000000000000e+00 0.0000000000000000e+00 0.0000000000000000e+00 0.0000000000000000e+00  5.1044464934511486e+00 1.7101018107604833e+00 0.0000000000000000e+00 1.7101018107604828e+00 9.0215925484266482e+00 0.0000000000000000e+00 0.0000000000000000e+00 0.0000000000000000e+00 0.0000000000000000e+00  1.8390253910027671e+01 1.9058861927748787e+01 0.0000000000000000e+00 1.9058861927748787e+01 1.8493033877246994e+01 0.0000000000000000e+00 0.0000000000000000e+00 0.0000000000000000e+00 0.0000000000000000e+00  3.0091216195019599e+00 5.0032996181523171e+00 0.0000000000000000e+00 5.0032996181523171e+00 2.6970147242367899e+00 0.0000000000000000e+00 0.0000000000000000e+00 0.0000000000000000e+00 0.0000000000000000e+00  1.2799628665930783e+01 2.9031406572935776e+01 0.0000000000000000e+00 2.9031406572935776e+01 1.3899886384990529e+01 0.0000000000000000e+00 0.0000000000000000e+00 0.0000000000000000e+00 0.0000000000000000e+00  1.4373630960055642e+01 2.4535855778309120e+01 0.0000000000000000e+00 2.4535855778309120e+01 1.5631000854533690e+01 0.0000000000000000e+00 0.0000000000000000e+00 0.0000000000000000e+00 0.0000000000000000e+00  -3.2097311334119070e+01 8.3549643104848514e+01 0.0000000000000000e+00 8.3549643104848514e+01 9.3302481470129095e+00 0.0000000000000000e+00 0.0000000000000000e+00 0.0000000000000000e+00 0.0000000000000000e+00  1.3085214094273965e+01 1.1818678885747165e+02 0.0000000000000000e+00 1.1818678885747165e+02 1.5352542318370892e+01 0.0000000000000000e+00 0.0000000000000000e+00 0.0000000000000000e+00 0.0000000000000000e+00  4.7710829634993646e-01 -1.6136025783389087e+01 0.0000000000000000e+00 -1.6136025783389087e+01 1.6812640624001010e+00 0.0000000000000000e+00 0.0000000000000000e+00 0.0000000000000000e+00 0.0000000000000000e+00  1.8665714826387603e+01 2.9988671539134177e+01 0.0000000000000000e+00 2.9988671539134177e+01 1.9750658382092816e+01 0.0000000000000000e+00 0.0000000000000000e+00 0.0000