<?xml version="1.0"?>
<VTKFile type="UnstructuredGrid"  version="0.1"  >
<UnstructuredGrid>
<Piece  NumberOfPoints="5185" NumberOfCells="10070">
<Points>
<DataArray  type="Float64"  NumberOfComponents="3"  format="ascii">0 1.5 0  0 0 0  0.1232405621108402 0 0  0.1232405621108402 0.02253860454731437 0  0.1476111412843772 0.06045996594834066 0  0.1886148129381372 0.07918571535047463 0  0.2332332010401509 0.07277055962836147 0  0.2673002826264945 0.0432512653964478 0  0.28 0 0  0.5342215165449864 0 0  0.5342215165449864 0.02394141003279682 0  0.5649999999999999 0.06062177826491071 0  0.6121553724366851 0.06893654271085457 0  0.6536231110183285 0.04499513267805775 0  0.6699999999999999 0 0  0.91 0 0  0.9220577136594005 0.04499999999999999 0  0.9550000000000001 0.07794228634059948 0  1 0.09 0  1.045 0.07794228634059946 0  1.077942286340599 0.04499999999999999 0  1.09 0 0  1.52324056211084 0 0  1.52324056211084 0.02253860454731437 0  1.547611141284377 0.06045996594834066 0  1.588614812938137 0.07918571535047463 0  1.633233201040151 0.07277055962836147 0  1.667300282626495 0.0432512653964478 0  1.68 0 0  1.84 0 0  1.857573593128807 0.04242640687119285 0  1.9 0.06 0  1.942426406871193 0.04242640687119285 0  1.96 0 0  2.22324056211084 0 0  2.22324056211084 0.02253860454731437 0  2.247611141284377 0.06045996594834066 0  2.288614812938137 0.07918571535047463 0  2.333233201040151 0.07277055962836147 0  2.367300282626494 0.0432512653964478 0  2.38 0 0  2.534221516544986 0 0  2.534221516544986 0.02394141003279682 0  2.565 0.06062177826491071 0  2.612155372436685 0.06893654271085457 0  2.653623111018328 0.04499513267805775 0  2.67 0 0  3 0 0  3 1.5 0  0 0.75 0  1.5 1.5 0  0 0.375 0  0.75 1.5 0  2.25 1.5 0  3 0.75 0  1.216228490499689 0.8069757125887627 0  1.965682393638027 0.8065702515463131 0  0.6025408912810675 0.8974591087189325 0  2.494676348647751 0.9946763486477508 0  2.356709259621435 0.5447946099875809 0  0.8599642199210003 0.5226206461323684 0  0.4216394361293908 0.4974105777134379 0  0.375 1.5 0  0 1.125 0  1.875 1.5 0  1.591091407334617 1.058091082812092 0  1.125 1.5 0  1.590810830624645 0.5394732912049653 0  0.9375 1.13479915923725 0  3 0.375 0  3 1.125 0  2.625 1.5 0  1.995245765771775 0.4277948434396763 0  2.145880954246818 1.137688199332401 0  1.227783477957362 0.427141979786574 0  2.705436295205127 0.5625 0  1.268702849688826 1.133996222613609 0  0.3526676910824388 1.147332308917561 0  0.3097907151415997 0.7889144057821572 0  0.903221947180751 0.828141240074398 0  0.6461527570085278 1.190944174645022 0  2.258488242757536 0.8210127920483788 0  2.400058919161888 1.260760484185309 0  2.778889354513028 0.9375 0  2.725079155390203 1.225079155390203 0  1.853608154101008 1.201589046866999 0  2.540576981905353 0.3370046821869876 0  0.7811555507088518 0.2732832036972447 0  1.493222576519009 0.798835058995101 0  1.747409300790817 0.3184283662481822 0  1.459899526511598 0.3067772450698331 0  0.1875 1.5 0  0 0.5625 0  2.521594883841638 0.7403247928378012 0  0.2438476629309629 0.32244155773108 0  3 0.1875 0  2.776470677837637 0.28125 0  2.121241022911138 0.6281701698960991 0  1.728545483402697 0.8581016441191361 0  1.012422318322288 0.3271268474523591 0  2.305755967143385 0.3144626442661202 0  1.30662028105542 0 0  1.6875 1.5 0  1.8265892939935 0.6051726401583923 0  0.5458598773451642 0.2962606377138959 0  0 0.9375 0  1.349377516922966 0.6209336375388498 0  1.079656249611334 0.612728400373996 0  0.7151087041654347 0.6989529576230681 0  2.0625 1.5 0  1.59375 1.288981971791887 0  2.085107439753329 0.2191742438537923 0  0.6402689932842839 0.4934943541428904 0  1.228474271256239 0.2064231070567615 0  1.3125 1.5 0  1.06968030723948 0.9647793670181679 0  0.2113350105157037 0.5332932754427466 0  0 1.3125 0  0.5051540211699285 0.7110632261327643 0  0.4775171365050886 1.316467280173536 0  1.967112413780365 1.020384154410382 0  0.8191736043349165 1.304781661824189 0  1.103455205015878 1.280328263155604 0  0.7649318329201844 1.023310716596371 0  0.2120544860962804 0.9823800432730223 0  1.359100570345391 0.9517705003379791 0  0.1711043107784345 1.21875 0  3 1.3125 0  2.8125 1.5 0  2.714178691455841 0.7554813872281284 0  2.217815962767571 1.313132398873298 0  2.020480176543968 1.307095379623413 0  2.29875620117699 1.013690599387144 0  0.3848285295772316 0.1937040883803935 0  0.9375 1.5 0  3 0.9375 0  2.4375 1.5 0  3 0.5625 0  0 0.1875 0  0.5625 1.5 0  2.835 0 0  1.386383673099448 1.305536509588035 0  1.773513842966063 1.0362399691084 0  2.179843036592861 0.4515211056338026 0  0.4134910794700652 0.9582824971065591 0  2.107214813096467 0.9125353945687058 0  1.916698009609654 0.2702971158297667 0  2.533006985360663 0.5155509623987015 0  2.838574938309606 0.4465309273225452 0  0.3016597101560133 1.338635596991575 0  1.641573393474498 0.7066136805426366 0  2.855238878880983 0.65625 0  1.398074618385877 0.1459865472102536 0  1.756539173374812 1.342993235461221 0  2.434593137832078 0.2067018044975929 0  1.434366740555482 0.4743139981449843 0  1.440742946818836 1.142108619191562 0  0.549043549720087 1.055391704395 0  2.571565919072277 1.32487216700893 0  2.535776521770127 1.159155922815097 0  2.652193336606067 1.04269083214613 0  0.660031172970541 1.35825582857438 0  2.607645482283307 0.8780318994093907 0  1.09590027081365 1.121554905778777 0  0.1474979543625655 0.8283466240195498 0  1.056776372361757 0.7739494406659941 0  0.3647560414155882 0.6427945145874604 0  1.699724067482516 1.17405657891935 0  0.913786173488833 0.9822051271795349 0  0.9283491691592597 0.66876089182342 0  0.7498959802087029 0.8498501951910959 0  0.3951228082283652 0.3465404522808934 0  1.23887612906836 1.360760366473919 0  0.1206420558503055 0.65625 0  1.735537276557186 0.4760109437618505 0  1.799297742536812 0.1791526413061006 0  1.970987958006469 0.6541756362249113 0  1.080810552147559 0.461742062484039 0  2.268149337929528 0.6688757993926466 0  2.413602460817152 0.8574959373397593 0  2.833998248858927 1.096635576389 0  2.71875 1.378451438260757 0  2.001906612723158 1.162230131308666 0  2.859452984352005 0.8083820929207302 0  2.688478120768856 0.4086214703657035 0  1.214106348747711 0.9519545202622776 0  2.850368184690094 1.307066142740315 0  1.864893983840636 0.9141560734025058 0  1.60661446108863 0.2395589708587393 0  1.61163060570479 0.3901968276506504 0  2.771867619212225 0.1335769833684914 0  0.7969119039620236 1.163109784140262 0  0.9599416701963486 1.276596315583475 0  2.103624150445193 0.7698297553089299 0  2.279721363034605 1.185280797873663 0  2.34375 1.392122382816539 0  0.1382307077648764 1.361769292235123 0  0.1426478344893104 0.2175212356047023 0  2.406413880432258 1.104106228251116 0  2.414971181397263 0.4111042519521358 0  2.637277274673136 0.2192348292007474 0  1.353600469573883 0.7646239317376279 0  1.494012125944227 0.651091825511382 0  1.590274899157226 0.9102986199774393 0  1.028633500752755 1.396325660524358 0  1.829615743479497 0.7518128394998403 0  1.861059000344659 0.3963812297683985 0  0.510900777690535 1.185277566959035 0  1.213080286311768 0.6640546084318578 0  0.79 0 0  0.8167897395818556 0.1376517357725223 0  0.9319739747594649 0.2144569310211157 0  1.889188139713804 1.330032757791382 0  0.655714683266079 0.2049689967103183 0  2.09162028105542 0 0  0.1359367774292784 0.4137345801986589 0  0.4380798275211911 0.8267965724704243 0  2.40400705830434 0.6721965963037969 0  0.3027633520173528 0.4394586980387968 0  0.8782788855287165 0.379708545377904 0  0.7595213470930909 0.4371189613680841 0  1.317967779309324 0.3170637160852436 0  0.6053759621699666 0.6225641226781395 0  0.6530309552265516 0.3661735489900947 0  2.594089294631991 0.631328821944253 0  0 1.03125 0  0.1304283746114646 1.089970844689444 0  0.4071107582724932 0 0  1.469526282978338 1.017083854458662 0  1.088959023533499 0.2104112015424126 0  1.161808378403757 0.3165749773273478 0  2.172966779463329 0.3188379172988492 0  2.216343768168092 0.1920401700474863 0  3 0.09375 0  1.905024675365066 0.5108806275986008 0  1.702014103004408 0.5963171944847371 0  0.2428042557945101 0.6514309613450368 0  3 1.40625 0  0.262372466757009 0.191725613649506 0  2.116791485436391 1.387145016777417 0  1.96875 1.5 0  2.885528053432104 0.3345800153572822 0  2.875601419873791 0.2042517854891826 0  2.298911783255236 0.4400662366556407 0  2.459247322083259 1.363881377923602 0  0.9735587139454543 0.5585353431007029 0  1.176315140569268 0.5379697839544898 0  2.0296370010214 0.5459700999805513 0  0.4987416453488727 0.4060939323248423 0  0.5397511702990104 0.1771676763212877 0  3 1.21875 0  2.238710633113112 0.5542203056099733 0  1.19831014052771 0 0  1.583962270593198 1.173633921912192 0  1.650563144166832 1.390075718520202 0  1.496025571730155 1.371899864460592 0  3 1.03125 0  2.887481932992674 0.9890041589451042 0  0.247836885460272 1.094286258989912 0  0.4719220056590702 0.6009044603312741 0  1.97565550452845 0.1615660574331665 0  2.131135530378305 0.1108580974478677 0  1.318642333542132 0.5051755928544708 0  1.217460132329928 1.242599824876711 0  1.511891312109549 0.1714963794002952 0  2.174601400318987 1.01685942781215 0  0.9082882406313817 1.384236564302014 0  0.6140422604397168 0.7728109899968187 0  0.8289359680247524 0.7347587321432018 0  0.741509926624258 0.5729763888559004 0  2.058356323822746 0.3313153147701495 0  0.4534336320756143 0.1034622594748756 0  1.40625 1.5 0  1.689084537897351 0.9628079283127213 0  1.156270839633873 0.1228556218721798 0  1.29033806179015 0.1118395069726669 0  1.460859151915469 0.9057320169622244 0  2.326558662668462 0.1831424028173474 0  0.9693052477371982 0.4460054238200853 0  0.6625304018229865 1.076650755704414 0  1.41493042158313 0 0  0.4485426513928407 1.096421738127594 0  0.2454589766548061 0.8778352103982039 0  0.1115239912906509 0.9339683416032414 0  1.134782462834443 0.8782884736059876 0  0.9999448991609674 1.04695529392896 0  0.9835215815673453 0.9000292002687431 0  2.53125 1.5 0  0.3175564878698739 1.010319294269645 0  1.971944763694389 0.9134401013848152 0  2.06
[...]
<PointData  Tensors="f_1024"> 
<DataArray  type="Float64"  Name="f_1024"  NumberOfComponents="9" format="ascii">-3.9156522538593244e+00 -1.4013409792565579e+00 0.0000000000000000e+00 -1.4013409792565579e+00 -1.9261962297371550e+01 0.0000000000000000e+00 0.0000000000000000e+00 0.0000000000000000e+00 0.0000000000000000e+00  3.2470409024806429e+01 3.0381482986405928e+00 0.0000000000000000e+00 3.0381482986405928e+00 3.4772208066555969e+01 0.0000000000000000e+00 0.0000000000000000e+00 0.0000000000000000e+00 0.0000000000000000e+00  4.4611400365581950e+01 -9.4779656110618262e+00 0.0000000000000000e+00 -9.4779656110618262e+00 1.8577954936528808e+01 0.0000000000000000e+00 0.0000000000000000e+00 0.0000000000000000e+00 0.0000000000000000e+00  8.5781071988870693e+01 2.1160153566575872e+01 0.0000000000000000e+00 2.1160153566575872e+01 -3.5469041167690143e+01 0.0000000000000000e+00 0.0000000000000000e+00 0.0000000000000000e+00 0.0000000000000000e+00  9.1530028204552679e+01 1.1514134075710531e+01 0.0000000000000000e+00 1.1514134075710531e+01 -4.5503737847944386e+01 0.0000000000000000e+00 0.0000000000000000e+00 0.0000000000000000e+00 0.0000000000000000e+00  3.4235564847189345e+01 5.3122233063377841e+01 0.0000000000000000e+00 5.3122233063377841e+01 2.8599188101466051e+01 0.0000000000000000e+00 0.0000000000000000e+00 0.0000000000000000e+00 0.0000000000000000e+00  6.2304673845504425e+01 4.9090187563157158e+01 0.0000000000000000e+00 4.9090187563157158e+01 -7.3903307915520795e+00 0.0000000000000000e+00 0.0000000000000000e+00 0.0000000000000000e+00 0.0000000000000000e+00  1.6924457868111382e+01 2.6131113704942234e+01 0.0000000000000000e+00 2.6131113704942234e+01 3.7257859590851325e+01 0.0000000000000000e+00 0.0000000000000000e+00 0.0000000000000000e+00 0.0000000000000000e+00  2.1205450788916838e+01 -4.4062229335638721e+00 0.0000000000000000e+00 -4.4062229335638721e+00 3.9334513435196143e+01 0.0000000000000000e+00 0.0000000000000000e+00 0.0000000000000000e+00 0.0000000000000000e+00  2.0910640145394581e+01 1.1064051858162066e-01 0.0000000000000000e+00 1.1064051858162066e-01 3.0457753361011910e+01 0.0000000000000000e+00 0.0000000000000000e+00 0.0000000000000000e+00 0.0000000000000000e+00  -5.8426537366182153e+01 -3.8849275179083655e+01 0.0000000000000000e+00 -3.8849275179083655e+01 8.9704942018032895e+01 0.0000000000000000e+00 0.0000000000000000e+00 0.0000000000000000e+00 0.0000000000000000e+00  -6.7705817930993163e+01 1.7774872272214019e+01 0.0000000000000000e+00 1.7774872272214019e+01 1.1592338971197684e+02 0.0000000000000000e+00 0.0000000000000000e+00 0.0000000000000000e+00 0.0000000000000000e+00  -6.1503095529418443e+00 -8.7509076529253793e+00 0.0000000000000000e+00 -8.7509076529253793e+00 7.9076426758066916e+01 0.0000000000000000e+00 0.0000000000000000e+00 0.0000000000000000e+00 0.0000000000000000e+00  -7.9080506838591319e+01 1.4213778524995165e+01 0.0000000000000000e+00 1.4213778524995165e+01 1.2008760002250516e+02 0.0000000000000000e+00 0.0000000000000000e+00 0.0000000000000000e+00 0.0000000000000000e+00  2.9777118610706673e+01 8.5563404793863196e+00 0.0000000000000000e+00 8.5563404793863196e+00 3.1156406754531741e+01 0.0000000000000000e+00 0.0000000000000000e+00 0.0000000000000000e+00 0.0000000000000000e+00  1.6905038716789406e+01 -1.1752996129463584e+01 0.0000000000000000e+00 -1.1752996129463584e+01 4.6446585077568699e+01 0.0000000000000000e+00 0.0000000000000000e+00 0.0000000000000000e+00 0.0000000000000000e+00  -1.8857150306684591e+01 -3.8049163252918618e+01 0.0000000000000000e+00 -3.8049163252918618e+01 6.5310771716824760e+01 0.0000000000000000e+00 0.0000000000000000e+00 0.0000000000000000e+00 0.0000000000000000e+00  2.3037605831401024e+01 -4.2452838479981700e+01 0.0000000000000000e+00 -4.2452838479981700e+01 1.7163706386688354e+01 0.0000000000000000e+00 0.0000000000000000e+00 0.0000000000000000e+00 0.0000000000000000e+00  3.6834341947216650e+01 -5.9448725851528735e+01 0.0000000000000000e+00 -5.9448725851528735e+01 1.2803979909522072e+00 0.0000000000000000e+00 0.0000000000000000e+00 0.0000000000000000e+00 0.0000000000000000e+00  7.7301156079634168e+01 6.5814045138481854e+00 0.0000000000000000e+00 6.5814045138481854e+00 -3.4487698558751667e+01 0.0000000000000000e+00 0.0000000000000000e+00 0.0000000000000000e+00 0.0000000000000000e+00  1.1998401464146001e+02 -3.9244157975515712e+01 0.0000000000000000e+00 -3.9244157975515712e+01 -8.3311627861539662e+01 0.0000000000000000e+00 0.0000000000000000e+00 0.0000000000000000e+00 0.0000000000000000e+00  3.1494594945613034e+01 3.5268264767529942e+00 0.0000000000000000e+00 3.5268264767529942e+00 1.4461313025804413e+01 0.0000000000000000e+00 0.0000000000000000e+00 0.0000000000000000e+00 0.0000000000000000e+00  1.2627755578526106e+01 5.2312579248756323e+00 0.0000000000000000e+00 5.2312579248756323e+00 2.8327969182846324e+01 0.0000000000000000e+00 0.0000000000000000e+00 0.0000000000000000e+00 0.0000000000000000e+00  -2.6190319088858134e+00 -1.5424288305731345e+01 0.0000000000000000e+00 -1.5424288305731345e+01 4.8574451072890987e+01 0.0000000000000000e+00 0.0000000000000000e+00 0.0000000000000000e+00 0.0000000000000000e+00  2.5761984766173690e+01 -2.8593862348582149e+01 0.0000000000000000e+00 -2.8593862348582149e+01 1.8990268178200761e+01 0.0000000000000000e+00 0.0000000000000000e+00 0.0000000000000000e+00 0.0000000000000000e+00  2.5529280348731692e+01 -5.9619979105025102e+01 0.0000000000000000e+00 -5.9619979105025102e+01 3.5623560525712432e+00 0.0000000000000000e+00 0.0000000000000000e+00 0.0000000000000000e+00 0.0000000000000000e+00  7.7785407959364406e+01 -2.3245084086557480e+01 0.0000000000000000e+00 -2.3245084086557480e+01 -3.1782147424977772e+01 0.0000000000000000e+00 0.0000000000000000e+00 0.0000000000000000e+00 0.0000000000000000e+00  1.0295738880954922e+02 -2.3454648399190603e+01 0.0000000000000000e+00 -2.3454648399190603e+01 -7.5003253623433594e+01 0.0000000000000000e+00 0.0000000000000000e+00 0.0000000000000000e+00 0.0000000000000000e+00  6.4071745940629796e+01 1.6355633236953661e+01 0.0000000000000000e+00 1.6355633236953661e+01 -1.9708713133027349e+01 0.0000000000000000e+00 0.0000000000000000e+00 0.0000000000000000e+00 0.0000000000000000e+00  2.6952304121928925e+01 -7.7249432423634679e-01 0.0000000000000000e+00 -7.7249432423634679e-01 1.0636845441964271e+01 0.0000000000000000e+00 0.0000000000000000e+00 0.0000000000000000e+00 0.0000000000000000e+00  5.0719557778601619e+01 -1.6825425893595582e+01 0.0000000000000000e+00 -1.6825425893595582e+01 -1.4108882162071110e+00 0.0000000000000000e+00 0.0000000000000000e+00 0.0000000000000000e+00 0.0000000000000000e+00  3.3842203664614651e+01 -7.2003480851264541e+01 0.0000000000000000e+00 -7.2003480851264541e+01 9.3615598503290123e+00 0.0000000000000000e+00 0.0000000000000000e+00 0.0000000000000000e+00 0.0000000000000000e+00  5.8371977344299637e+01 -2.3075333641557688e+01 0.0000000000000000e+00 -2.3075333641557688e+01 -2.4544974966057463e+01 0.0000000000000000e+00 0.0000000000000000e+00 0.0000000000000000e+00 0.0000000000000000e+00  4.9793889394741392e+01 7.5625951115251491e+00 0.0000000000000000e+00 7.5625951115251491e+00 -1.4713898887995146e+01 0.0000000000000000e+00 0.0000000000000000e+00 0.0000000000000000e+00 0.0000000000000000e+00  1.4316949082319095e+01 -1.6127189797702307e-01 0.0000000000000000e+00 -1.6127189797702307e-01 1.1777117579672518e+01 0.0000000000000000e+00 0.0000000000000000e+00 0.0000000000000000e+00 0.0000000000000000e+00  8.7302043831082230e+01 2.6772014328544220e+01 0.0000000000000000e+00 2.6772014328544220e+01 -3.4719263789651357e+01 0.0000000000000000e+00 0.0000000000000000e+00 0.0000000000000000e+00 0.0000000000000000e+00  8.4803371629049622e+01 -1.0166158588643160e+01 0.0000000000000000e+00 -1.0166158588643160e+01 -6.9145278110363392e+01 0.0000000000000000e+00 0.0000000000000000e+00 0.0000000000000000e+00 0.0000000000000000e+00  3.5790039394709083e+01 1.1518906160012897e+01 0.0000000000000000e+00 1.1518906160012897e+01 -7.4855582302754691e+00 0.0000000000000000e+00 0.0000000000000000e+00 0.0000000000000000e+00 0.0000000000000000e+00  1.0846407096988470e+01 2.5055262222995768e+01 0.0000000000000000e+00 2.5055262222995768e+01 1.9689465983057062e+01 0.0000000000000000e+00 0.0000000000000000e+00 0.0000000000000000e+00 0.0000000000000000e+00  -3.6020730048718562e+01 3.7919161760666391e+01 0.0000000000000000e+00 3.7919161760666391e+01 6.2434056477858306e+01 0.0000000000000000e+00 0.0000000000000000e+00 0.0000000000000000e+00 0.0000000000000000e+00  5.8943242188538063e+00 -1.1382303468533552e+00 0.0000000000000000e+00 -1.1382303468533552e+00 2.9632350493275041e+01 0.0000000000000000e+00 0.0000000000000000e+00 0.0000000000000000e+00 0.0000000000000000e+00  1.7535181997242191e+01 -3.6411813896044816e+00 0.0000000000000000e+00 -3.6411813896044816e+00 6.4097283764331721e+00 0.0000000000000000e+00 0.0000000000000000e+00 0.0000000000000000e+00 0.0000000000000000e+00  1.0403413299730663e+02 2.2081946054558578e+01 0.0000000000000000e+00 2.2081946054558578e+01 -5.3890114814721123e+01 0.0000000000000000e+00 0.0000000000000000e+00 0.0000000000000000e+00 0.0000000000000000e+00  9.9910086859929734e+01 -2.0633527450074887e+01 0.0000000000000000e+00 -2.0633527450074883e+01 -8.0120043697073399e+01 0.0000000000000000e+00 0.0000000000000000e+00 0.0000000000000000e+00 0.0000000000000000e+00  2.1943289943723827e+00 -1.2807766380081837e+01 0.0000000000000000e+00 -1.2807766380081837e+01 1.9514098538000528e+01 0.0000000000000000e+00 0.0000000000000000e+00 0.0000000000000000e+00 0.0000000000000000e+00  -6.8013009140348188e+01 2.6222628353594807e+01 0.0000000000000000e+00 2.6222628353594807e+01 9.5258342265495813e+01 0.0000000000000000e+00 0.0000000000000000e+00 0.0000000000000000e+00 0.0000000000000000e+00  5.5308787811178775e+00 -4.8185953842152029e+00 0.0000000000000000e+00 -4.8185953842152029e+00 7.3425206811520818e+00 0.0000000000000000e+00 0.0000000000000000e+00 0.0000000000000000e+00 0.0000000000000000e+00  -3.3612818017538694e+02 1.3564644864796841e+02 0.0000000000000000e+00 1.3564644864796841e+02 -1.3944343456359681e-01 0.0000000000000000e+00 0.0000000000000000e+00 0.0000000000000000e+00 0.0000000000000000e+00  3.7521301679617056e+02 2.2923091037061383e+02 0.0000000000000000e+00 2.2923091037061383e+02 8.8841177369084846e+01 0.0000000000000000e+00 0.0000000000000000e+00 0.0000000000000000e+00 0.0000000000000000e+00  1.2996771329713193e+01 9.3628905466606099e+01 0.0000000000000000e+00 9.3628905466606099e+01 1.2603033763927984e+00 0.0000000000000000e+00 0.0000000000000000e+00 0.0000000000000000e+00 0.0000000000000000e+00  3.6906859440956294e+00 6.2144180980900403e+00 0.0000000000000000e+00 6.2144180980900403e+00 -2.3868506892302555e+01 0.0000000000000000e+00 0.0000000000000000e+00 0.0000000000000000e+00 0.0000000000000000e+00  1.6471736527487955e+01 1.0423105284951123e+02 0.0000000000000000e+00 1.0423105284951123e+02 2.2307438827247317e+01 0.0000000000000000e+00 0.0000000000000000e+00 0.0000000000000000e+00 0.0000000000000000e+00  -2.3348216756117520e+01 1.9758740506854696e+01 0.0000000000000000e+00 1.9758740506854696e+01 2.5628677921659015e+00 0.0000000000000000e+00 0.0000000000000000e+00 0.0000000000000000e+00 0.0000000000000000e+00  -3.0799819743141857e+01 -2.0584122406263685e+01 0.0000000000000000e+00 -2.0584122406263685e+01 -4.2117844991154429e+00 0.0000000000000000e+00 0.0000000000000000e+00 0.0000000000000000e+00 0.0000000000000000e+00  -1.2345020612468298e+01 -1.9624430739574859e+02 0.0000000000000000e+00 -1.9624430739574859e+02 1.0146640118007138e+01 0.0000000000000000e+00 0.0000000000000000e+00 0.0000000000000000e+00 0.0000000000000000e+00  3.9645051533734739e+00 -8.8921863384631692e+00 0.0000000000000000e+00 -8.8921863384631692e+00 3.8354045659132829e+00 0.0000000000000000e+00 0.0000000000000000e+00 0.0000000000000000e+00 0.0000000000000000e+00  1.8180224473298034e+00 8.6355307913907922e+00 0.0000000000000000e+00 8.6355307913907993e+00 1.5119745635523636e+00 0.0000000000000000e+00 0.0000000000000000e+00 0.0000000000000000e+00 0.0000000000000000e+00  3.5967692092403278e+00 -1.4907940055306999e+00 0.0000000000000000e+00 -1.4907940055306999e+00 3.5285475238447392e+00 0.0000000000000000e+00 0.0000000000000000e+00 0.0000000000000000e+00 0.0000000000000000e+00  -2.3400675704125997e+00 -2.3379672412195770e+01 0.0000000000000000e+00 -2.3379672412195774e+01 -2.9065800016687202e+00 0.0000000000000000e+00 0.0000000000000000e+00 0.0000000000000000e+00 0.0000000000000000e+00  4.9758754897014823e+00 2.1559624734447652e+01 0.0000000000000000e+00 2.1559624734447652e+01 5.3366176941651187e+00 0.0000000000000000e+00 0.0000000000000000e+00 0.0000000000000000e+00 0.0000000000000000e+00  1.2107313764938063e+01 1.9821533078378003e+01 0.0000000000000000e+00 1.9821533078378003e+01 1.2063195312530613e+01 0.0000000000000000e+00 0.0000000000000000e+00 0.0000000000000000e+00 0.0000000000000000e+00  1.4456792965418403e+01 -1.5054192190039968e+01 0.0000000000000000e+00 -1.5054192190039968e+01 1.4163178427575664e+01 0.0000000000000000e+00 0.0000000000000000e+00 0.0000000000000000e+00 0.0000000000000000e+00  -8.2022230197660324e+00 -8.8699584867617034e+01 0.0000000000000000e+00 -8.8699584867617034e+01 -1.0451337738539628e+01 0.0000000000000000e+00 0.0000000000000000e+00 0.0000000000000000e+00 0.0000000000000000e+00  -4.2930501038266833e+00 1.0036460509179499e+02 0.0000000000000000e+00 1.0036460509179499e+02 2.3120359846832774e+00 0.0000000000000000e+00 0.0000000000000000e+00 0.0000000000000000e+00 0.0000000000000000e+00  -2.7945974970771079e+01 -9.9887547832256402e+01 0.0000000000000000e+00 -9.9887547832256402e+01 -8.4160304608083543e+00 0.0000000000000000e+00 0.0000000000000000e+00 0.0000000000000000e+00 0.0000000000000000e+00  -3.0493736879331625e+00 -2.4749825682794590e+01 0.0000000000000000e+00 -2.4749825682794590e+01 -3.4729028218923106e+00 0.0000000000000000e+00 0.0000000000000000e+00 0.0000000000000000e+00 0.0000000000000000e+00  -2.8087906194501251e+01 1.0879019287717674e+02 0.0000000000000000e+00 1.0879019287717674e+02 -1.1455733521921299e+01 0.0000000000000000e+00 0.0000000000000000e+00 0.0000000000000000e+00 0.0000000000000000e+00  8.8834694268985341e+00 -2.4500439996162303e+01 0.0000000000000000e+00 -2.4500439996162299e+01 9.2180019901550718e+00 0.0000000000000000e+00 0.0000000000000000e+00 0.0000000000000000e+00 0.0000000000000000e+00  -3.2897170982615673e+00 -1.8791128491910406e+01 0.0000000000000000e+00 -1.8791128491910406e+01 -3.5410230025705447e+00 0.0000000000000000e+00 0.0000000000000000e+00 0.0000000000000000e+00 0.0000000000000000e+00  1.1107992963989881e+02 -1.0852878736943120e+02 0.0000000000000000e+00 -1.0852878736943120e+02 4.6034825646452164e+00 0.0000000000000000e+00 0.0000000000000000e+00 0.0000000000000000e+00 0.0000000000000000e+00  -2.2503431105764727e+02 -3.4161987965932019e+02 0.0000000000000000e+00 -3.4161987965932019e+02 -1.9012676280013082e+01 0.0000000000000000e+00 0.0000000000000000e+00 0.0000000000000000e+00 0.0000000000000000e+00  -1.3298860187525539e+01 4.5427772546428933e+01 0.0000000000000000e+00 4.5427772546428933e+01 -1.3634787035993895e+01 0.0000000000000000e+00 0.0000000000000000e+00 0.0000000000000000e+00 0.0000000000000000e+00  9.4544081237243951e+00 2.2464737850880407e+01 0.0000000000000000e+00 2.2464737850880404e+01 9.9613224084736682e+00 0.0000000000000000e+00 0.0000000000000000e+00 0.0000000000000000e+00 0.0000000000000000e+00  -4.9041371771132223e+00 -2.0168199200824557e+01 0.0000000000000000e+00 -2.0168199200824557e+01 -6.5822136867624641e+00 0.0000000000000000e+00 0.0000000000000000e+00 0.0000000000000000e+00 0.0000000000000000e+00  1.3150350911900583e+01 -1.4325977611207071e+01 0.0000000000000000e+00 -1.4325977611207071e+01 1.3084124285490514e+01 0.0000000000000000e+00 0.0000000000000000e+00 0.0000000000000000e+00 0.0000000000000000e+00  1.5310958114284718e+00 -1.9907083000937307e+00 0.0000000000000000e+00 -1.9907083000937307e+00 3.1594676649809830e+00 0.0000000000000000e+00 0.0000000000000000e+00 0.0000000000000000e+00 0.0000000000000000e+00  -4.0661745974838581e+00 -2.6481900207662818e+01 0.0000000000000000e+00 -2.6481900207662818e+01 -4.2203921810949696e+00 0.0000000000000000e+00 0.0000000000000000e+00 0.0000000000000000e+00 0.0000000000000000e+00  -2.0285257103296539e+00 -2.3634000793899077e+01 0.0000000000000000e+00 -2.3634000793899077e+01 -2.0536588025581994e+00 0.0000000000000000e+00 0.0000000000000000e+00 0.0000000000000000e+00 0.0000000000000000e+00  7.3552586554746249e+00 -5.2512073400625372e+00 0.0000000000000000e+00 -5.2512073400625372e+00 7.1343614577011056e+00 0.0000000000000000e+00 0.0000000000000000e+00 0.0000000000000000e+00 0.0000000000000000e+00  4.4344871572216160e+00 -1.4563700774575616e+00 0.0000000000000000e+00 -1.4563700774575616e+00 4.2189681845958509e+00 0.0000000000000000e+00 0.0000000000000000e+00 0.0000000000000000e+00 0.0000000000000000e+00  -3.8678453306147311e+00 -2.1828710004133601e+01 0.0000000000000000e+00 -2.1828710004133601e+01 -3.9612218526803051e+00 0.0000000000000000e+00 0.0000000000000000e+00 0.0000000000000000e+00 0.0000000000000000e+00  7.1917285236219164e-01 5.1118700159333956e+00 0.0000000000000000e+00 5.1118700159333956e+00 6.6730178329798759e-02 0.0000000000000000e+00 0.0000000000000000e+00 0.0000000000000000e+00 0.0000000000000000e+00  -5.5113477958527834e+00 3.2991898972462059e+00 0.0000000000000000e+00 3.2991898972462059e+00 -9.7780214196152127e+00 0.0000000000000000e+00 0.0000000000000000e+00 0.0000000000000000e+00 0.0000000000000000e+00  -1.6133549140307550e+00 -2.3139741542569542e+01 0.0000000000000000e+00 -2.3139741542569542e+01 -4.4249814698618356e-01 0.0000000000000000e+00 0.0000000000000000e+00 0.0000000000000000e+00 0.0000000000000000e+00  -2.6715126582341449e+00 -5.9457939124131816e+00 0.0000000000000000e+00 -5.9457939124131816e+00 -7.0107291263180977e+00 0.0000000000000000e+00 0.0000000000000000e+00 0.0000000000000000e+00 0.0000000000000000e+00  -6.5116816699018498e+00 -2.3179480581239762e+01 0.0000000000000000e+00 -2.3179480581239762e+01 -7.8062203721359085e+00 0.0000000000000000e+00 0.0000000000000000e+00 0.0000000000000000e+00 0.0000000000000000e+00  5.6839831687726878e+00 -1.9086306745632900e-01 0.0000000000000000e+00 -1.9086306745632889e-01 8.8829327002680945e+00 0.0000000000000000e+00 0.0000000000000000e+00 0.0000000000000000e+00 0.0000000000000000e+00  1.8649557722890474e+01 1.5586200497499377e+01 0.0000000000000000e+00 1.5586200497499377e+01 1.8806452163721548e+01 0.0000000000000000e+00 0.0000000000000000e+00 0.0000000000000000e+00 0.0000000000000000e+00  3.2215298133986776e+00 4.0063340987985585e+00 0.0000000000000000e+00 4.0063340987985585e+00 3.0434441688808391e+00 0.0000000000000000e+00 0.0000000000000000e+00 0.0000000000000000e+00 0.0000000000000000e+00  1.3085752431294985e+01 2.3581434746057312e+01 0.0000000000000000e+00 2.3581434746057312e+01 1.4014511485219561e+01 0.0000000000000000e+00 0.0000000000000000e+00 0.0000000000000000e+00 0.0000000000000000e+00  1.4691557534772921e+01 1.9813467824721283e+01 0.0000000000000000e+00 1.9813467824721283e+01 1.5783561525019696e+01 0.0000000000000000e+00 0.0000000000000000e+00 0.0000000000000000e+00 0.0000000000000000e+00  -3.0282826260654229e+01 7.4520027915851173e+01 0.0000000000000000e+00 7.4520027915851173e+01 6.0393852273325201e+00 0.0000000000000000e+00 0.0000000000000000e+00 0.0000000000000000e+00 0.0000000000000000e+00  1.3466359367846442e+01 1.0300075354529451e+02 0.0000000000000000e+00 1.0300075354529451e+02 1.5536558715331896e+01 0.0000000000000000e+00 0.0000000000000000e+00 0.0000000000000000e+00 0.0000000000000000e+00  9.3929392743234730e-01 -1.3128407699540997e+01 0.0000000000000000e+00 -1.3128407699540997e+01 1.5047457434256624e+00 0.0000000000000000e+00 0.0000000000000000e+00 0.0000000000000000e+00 0.0000000000000000e+00  1.9168810300357315e+01 2.4238816087813156e+01 0.0000000000000000e+00 2.4238816087813156e+01 1.9690920338403515e+01 0.0000000000000000e+00 0.0000000000000000e+00 0.00