<?xml version="1.0"?>
<VTKFile type="UnstructuredGrid"  version="0.1"  >
<UnstructuredGrid>
<Piece  NumberOfPoints="4835" NumberOfCells="9296">
<Points>
<DataArray  type="Float64"  NumberOfComponents="3"  format="ascii">0 1.5 0  -0 0.1307014797437256 0  0.01134725726173103 0.1483581566929452 0  0.04283342385313163 0.181379897845022 0  0.08000000000000007 0.2078460969082653 0  0.1215036888038188 0.2268001964915204 0  0.1658444388144116 0.2375571460514239 0  0.2114196597976982 0.2397281614039219 0  0.2565821445222626 0.23323477639765 0  0.2996996031204527 0.2183116788850844 0  0.3392136582970876 0.1954982284920806 0  0.3736961691452169 0.1656189627557069 0  0.4019008478794835 0.1297537961893434 0  0.4059948616314525 0.1218125174167552 0  0.4254856317806581 0.1498156710261111 0  0.4592156240140376 0.1818784194956707 0  0.498709345141744 0.2064950441012706 0  0.5423499175804942 0.222657737339227 0  0.588350691167096 0.2297047966493422 0  0.6348283888260526 0.2273477145954656 0  0.6798802081543086 0.2156829903938285 0  0.7216617223752013 0.1951881792237927 0  0.7584623913874079 0.1667023410626976 0  0.7879811633353602 0.1323170874919288 0  0.8152477706948351 0.1684239109116393 0  0.849341340905186 0.1995043068200599 0  0.8885654110558655 0.2237908228387656 0  0.9315842524819793 0.2404564107932048 0  0.9769329101341745 0.2489335440737586 0  1.023067089865825 0.2489335440737586 0  1.068415747518021 0.2404564107932048 0  1.111434588944135 0.2237908228387656 0  1.150658659094814 0.1995043068200599 0  1.184752229305165 0.1684239109116393 0  1.212554283932403 0.1316080407193389 0  1.233118057351089 0.09031041654678823 0  1.245743274920975 0.04593737945414259 0  1.25 0 0  1.36108673858246 0 0  1.36108673858246 0.02281345039300389 0  1.369721686332521 0.06761581364194322 0  1.386679492322819 0.1099743652145785 0  1.411347257261731 0.1483581566929452 0  1.442833423853132 0.181379897845022 0  1.48 0.2078460969082653 0  1.521503688803819 0.2268001964915204 0  1.565844438814412 0.2375571460514239 0  1.611419659797698 0.2397281614039219 0  1.656582144522263 0.23323477639765 0  1.699699603120453 0.2183116788850844 0  1.739213658297088 0.1954982284920806 0  1.765497292517293 0.1727233297951148 0  1.79 0.1905255888325765 0  1.832016261237511 0.2092324335849338 0  1.877003738081116 0.2187948169810202 0  1.922996261918884 0.2187948169810201 0  1.967983738762488 0.2092324335849338 0  2.01 0.1905255888325765 0  2.047208733398949 0.1634918616050267 0  2.077983738762488 0.1293127555043441 0  2.087980221556173 0.1119983394086949 0  2.111347257261731 0.1483581566929452 0  2.142833423853131 0.181379897845022 0  2.18 0.2078460969082653 0  2.221503688803819 0.2268001964915204 0  2.265844438814411 0.2375571460514239 0  2.311419659797698 0.2397281614039219 0  2.356582144522263 0.23323477639765 0  2.399699603120453 0.2183116788850844 0  2.439213658297088 0.1954982284920806 0  2.457172785224357 0.179936556425434 0  2.459215624014038 0.1818784194956707 0  2.498709345141744 0.2064950441012706 0  2.542349917580494 0.222657737339227 0  2.588350691167096 0.2297047966493422 0  2.634828388826053 0.2273477145954656 0  2.679880208154309 0.2156829903938285 0  2.721661722375202 0.1951881792237927 0  2.758462391387408 0.1667023410626976 0  2.788775591477674 0.1313916894718022 0  2.811360296672653 0.09070184667606328 0  2.825291886488074 0.04629865962039181 0  2.83 0 0  3 0 0  3 1.5 0  0 0.8023345134541607 0  0.4157402467060553 0.1358140942214332 0  3 0.75 0  1.5 1.5 0  0 0.4665179965989431 0  3 0.375 0  0 0.2986097381713344 0  0 0.21465560895753 0  0 0.1726785443506278 0  0 0.1516900120471767 0  2.25 1.5 0  0.75 1.5 0  1.169989811679434 0.9093651732355621 0  1.875 0.9142758100523694 0  0.5779365036100435 0.9330077223331824 0  2.43246936225428 0.7976868957014953 0  3 1.125 0  2.625 1.5 0  0.375 1.5 0  0 1.15116725672708 0  1.449253057879235 0.6213873587688492 0  0.7697361971202799 0.5943793911944208 0  0.3630076616442724 0.6080350564914153 0  2.069570984533324 0.5812833454367354 0  1.875 1.5 0  1.125 1.5 0  2.4375 1.173854331507092 0  0.8831005780031504 1.150004411874495 0  1.52207987625039 0.9714054497350916 0  2.0625 1.207137905026185 0  1.107793318688589 0.5766433232347881 0  1.3125 1.2274095306559 0  2.729985961523573 0.9375 0  2.711750443384031 0.5625 0  1.6875 1.243073622519403 0  1.760894209596057 0.6242614373612321 0  0.2643049832376852 0.9767508850906206 0  0.4566194854768236 1.209399638766609 0  2.728217267602858 1.228217267602858 0  2.374499195658668 0.518153287180279 0  2.169650674143702 0.9320836008992801 0  0.8550719231757007 0.8663457099410541 0  1.303567858855371 0.4078893824383345 0  0.2133194436665546 1.297827371069245 0  0.5308017499037517 0.4517023193912283 0  1.083077097725883 1.270382833575872 0  0.6830238102386342 1.274223132985906 0  2.250983943328481 0.6895458766515071 0  1.81089184968521 0.4192208869708923 0  1.679274712803154 0.8238291020339636 0  1.5785148524717 0.4510287526682343 0  0 0.6344262550265519 0  0.2138866804674432 0.765685327335986 0  0.5683532856219899 0.6602211278972628 0  0.9375 1.5 0  0.93201471049342 0.4568525359126817 0  1.262687644113192 0.7198627504483751 0  0.4154000952342595 0.8069446327163143 0  0.2139559556345817 0.4540330649264536 0  2.06977986811652 0.3813318272583126 0  0.7200651071201811 0.4061566188086219 0  1.932157822851692 0.7243325602448901 0  0.9441947922338874 0.689010158618046 0  3 1.3125 0  2.8125 1.5 0  0.5625 1.5 0  1.865575888969794 1.126762336039809 0  1.691368628814911 1.054521333692312 0  2.243682835689564 1.11932177110543 0  2.294933652681559 1.30886281903233 0  2.4375 1.5 0  2.385653526545621 0.9864303388879195 0  2.560603055863368 1.320052196970997 0  2.605098352881707 1.08210421072607 0  2.797310903081369 0.7462827406561878 0  1.497248537655819 1.30111187331848 0  1.6875 1.5 0  3 0.5625 0  3 0.9375 0  1.3125 1.5 0  2.0625 1.5 0  3 0.1875 0  0.1875 1.5 0  0.9978323986844071 0.9954535003819682 0  0.7455388243606953 1.020382929522352 0  1.904625246064701 1.312514164033404 0  1.15622562020362 1.097022204090454 0  1.332774827327096 1.015638362851981 0  2.617489052932561 0.7904306825848915 0  2.798834931624827 0.3810601956207291 0  2.518702939674024 0.6340258449062608 0  1.42862153170688 0.8082655083169574 0  2.016051725629557 1.02698392558818 0  2.557580898838836 0.4303899543284488 0  0.9143579924460792 1.324371521638632 0  0.6907201107072946 0.792483910827579 0  0 1.32558362836354 0  0 0.9767508850906206 0  0.6046140448732628 1.120294499938289 0  1.129353874055204 0.4037183319394277 0  2.240578803971554 0.4086758810341738 0  1.544887400155686 1.138911442832316 0  2.828734594747712 1.083464790593587 0  0.401358428169992 0.3487630281226344 0  0.1737226743516005 1.126953194380642 0  1.219293394173851 1.36370476532795 0  2.095593203128485 0.7438044944874065 0  1.099947866649755 0.7404984974094087 0  0.4225987016856009 0.9654760294046846 0  1.265404984472296 0.5615537191035901 0  1.908099381276504 0.55154028811489 0  1.605233217264331 0.6055204891939014 0  0.2070403235706232 0.6098576665994301 0  0.46875 1.369568887475175 0  2.529999076220762 0.9220559311443081 0  0.3296306516835505 1.118561581461605 0  2.136891098712708 1.353568952513092 0  0.1250262355603041 0.8895426992723907 0  2.286468869522623 0.8363516131379349 0  2.03024950667879 0.8782110935537075 0  2.71875 1.380113023166798 0  2.851157149000174 1.312122703709591 0  2.855875221692015 0.6072101925796368 0  1.766081959310164 1.371536811259701 0  2.417227117459742 0.3724437385102629 0  1.365276810157265 1.363519047380362 0  1.451310499971155 0.3640091006357036 0  2.211012611580202 0.5503989260541815 0  1.306789156675977 0.2570819477057019 0  2.872418607762505 0.256220469598872 0  2.896902016958361 0.84375 0  0.6487095286926469 0.5256523827174592 0  1.021477811485347 1.13286821063065 0  1.622350554793597 1.371881362989231 0  1.297557547403682 0.854343314165958 0  0.5529398034156436 0.7974238691464364 0  1.000783388185185 0.848708117631217 0  0.8152141294141361 0.735251676415229 0  2.383386472338196 0.654760318649699 0  1.031024064601143 1.39833771698851 0  1.812756223744312 0.7919737740986065 0  2.902150447032281 0.46875 0  1.558478314279628 0.7430881247578319 0  2.428095049619715 1.306700780290589 0  0.3309906154406318 1.369459454266083 0  0.117457385934373 0.361895434578648 0  0.4016309285334721 0.4812757168525422 0  1.933925005895449 0.3564723397117748 0  0.7479761182598068 1.155601287121883 0  0.09711831342126455 1.23837544254531 0  1.384025258268523 0.5094422387329146 0  2.188092881729461 1.235445092789212 0  0.116614462422195 1.388212202394539 0  0.5993432477835932 1.374610260003488 0  0.8731519049868882 1.022757560732678 0  0.1109021857268646 0.5275252102504697 0  1.703820060431276 0.5017282682884084 0  0.1118224159219883 0.6921053365242938 0  0.3267069786561488 1.244030051070764 0  2.878127312164905 0.9679608000003684 0  1.408346090782441 1.129729637108486 0  0.8047358880839842 0.3153623688883521 0  2.6405066654848 0.6664933064830099 0  0.4805702216488833 1.081724858267193 0  2.668084598222495 0.3562155878484895 0  2.138121375887776 1.052804865904559 0  1.96875 1.5 0  0.4891907154726056 0.5668366043293971 0  0.1473863332166031 1.0086557402922 0  2.558860649578938 1.196592162044302 0  1.717555244640741 0.3396535732296396 0  0.84375 1.5 0  0.7839942032523698 1.367093097528149 0  3 1.40625 0  2.484124862262918 1.060073596740424 0  3 1.21875 0  2.34375 1.5 0  0.8196209764267471 1.251369088398821 0  2.023202270335131 1.319214170177879 0  0.5721208504581607 1.233781127425821 0  1.984735816620384 0.462442873488178 0  0.6955333931194808 0.9118686683832042 0  1.19123464962554 1.213906677421382 0  0.8929803638185398 0.5752987850534633 0  1.566736823664244 0.8614646887466211 0  1.808684073906441 1.017786844668201 0  1.719105195888173 0.9374041347540488 0  1.671476674178274 0.70476362875428 0  1.218260709491531 0.330629071498573 0  2.839021519587611 1.19788439058923 0  0.5170070740021471 0.3361933937254621 0  1.393527188254162 0.91788143976
[...]
<PointData  Scalars="f_66"> 
<DataArray  type="Float64"  Name="f_66"  format="ascii">1.0847969799812210e+01  -2.8011271308481085e+01  -2.7089500602592320e+01  -2.5270183804361402e+01  -2.3433926781425729e+01  -2.1734867224794161e+01  -2.0759593875834621e+01  -2.1835155938880412e+01  -2.3016571586601689e+01  -2.3573989175509102e+01  -2.3468510008687144e+01  -2.2717190690090703e+01  -2.2347131043216827e+01  -2.2549264785682713e+01  -2.2015803491893486e+01  -2.1162123771481799e+01  -2.1094303258240735e+01  -2.2099117474260566e+01  -2.2527917605092330e+01  -2.2297392961846132e+01  -2.1097417834043867e+01  -2.0203833497078818e+01  -2.0425155823256873e+01  -2.0692158118721153e+01  -2.0609046083410458e+01  -2.1262219234947125e+01  -2.1420838227069584e+01  -2.0738970993736995e+01  -1.9347880647941217e+01  -1.7880699291213507e+01  -1.7872081212928176e+01  -1.9412945863884250e+01  -2.0636974862999491e+01  -2.1831591994359087e+01  -2.2422676186208264e+01  -2.2520631050701194e+01  -2.2466759209901660e+01  -2.3163872345574884e+01  -2.1494187721369595e+01  -2.1443095642499724e+01  -2.1014064851241308e+01  -2.0330513426511622e+01  -1.9822852694927416e+01  -1.9945449915589439e+01  -2.0130881929622902e+01  -1.9504614692846438e+01  -1.8305920207189011e+01  -1.6646565860758724e+01  -1.6203345329584522e+01  -1.7349623616657322e+01  -1.8942745797435681e+01  -2.0061086370446912e+01  -1.9377625806475859e+01  -1.8396931688363555e+01  -1.6996849970932963e+01  -1.5229114682987019e+01  -1.5235470978795675e+01  -1.6807179496575618e+01  -1.8437231446933765e+01  -2.0054749755151160e+01  -2.0833276396818981e+01  -1.9015876570103170e+01  -1.7235619408629489e+01  -1.5458613496288722e+01  -1.3537387253154344e+01  -1.2457769243173413e+01  -1.2925152095060795e+01  -1.3819108549131437e+01  -1.4112170044896134e+01  -1.3495498100770126e+01  -1.3544721672099110e+01  -1.3548046124979173e+01  -1.1900190377845357e+01  -1.0164414265311112e+01  -9.4852655097972800e+00  -9.6905065912886332e+00  -9.6065301704828912e+00  -8.8925421303088381e+00  -7.0827564734847730e+00  -5.0538909458073071e+00  -3.9699251117441277e+00  -3.7443462256449149e+00  -3.7634042310610529e+00  0.0000000000000000e+00  0.0000000000000000e+00  -9.0404299288863879e+00  -2.2306737251865261e+01  0.0000000000000000e+00  1.4608011042542879e+01  -1.7615972180104553e+01  0.0000000000000000e+00  -2.1676179937944834e+01  -2.4073930553308614e+01  -2.5934590050863790e+01  -2.6961739495845141e+01  1.2103534617780500e+01  9.7791075991361200e+00  -2.8727941791390972e+00  -8.1653056193676710e-01  -3.9639305902059307e+00  -1.6797691449052932e+00  0.0000000000000000e+00  1.1143871111298090e+01  1.0183555995686811e+01  2.2623132739758953e-01  -9.1275254274830893e+00  -1.1912764068662653e+01  -1.2814394375818260e+01  -7.5725440900978880e+00  1.3475552932651404e+01  1.2114257173790275e+01  5.0213365165985531e+00  2.3224172348871304e+00  -3.8083482559727977e-01  6.1706160050951508e+00  -1.1265956769053286e+01  5.3738826282032335e+00  6.4929743978276633e-01  -3.3147703407277014e+00  6.5584588512232349e+00  -7.9462683874695488e+00  -3.7116922300778454e+00  2.6978689346593101e+00  4.1066124629441960e+00  -7.0196669773133173e+00  2.4510401969065512e-01  -4.8474850898371384e+00  -1.4819866443118507e+01  4.3579187922412608e+00  -1.6313494632211089e+01  5.8412507913578349e+00  4.9288136459304095e+00  -4.3862762847701706e+00  -1.2638474260677800e+01  -3.4863251387545611e+00  -1.2874245158984429e+01  -1.3384940284719345e+01  -9.2799384034868968e+00  -1.0892677093465823e+01  1.2691291932984003e+01  -1.4789721084063055e+01  -7.2515207457622770e+00  -7.6098194856138841e+00  -1.7169898897219255e+01  -1.2109199650774757e+01  -1.6807723886819538e+01  -4.9653179622848267e+00  -8.9849569957885862e+00  0.0000000000000000e+00  7.1095134059870775e+00  1.1768629072843003e+01  4.0956277274816433e+00  2.0322240345680904e+00  4.2446509206654168e+00  8.2916499748430983e+00  1.3873158308437416e+01  1.6075660109222012e+00  7.3109297500899348e+00  2.9531957481340658e+00  -9.8939522825104687e-01  7.6530310606190408e+00  1.2323785867104149e+01  0.0000000000000000e+00  0.0000000000000000e+00  1.1656432352381012e+01  1.4713447248944686e+01  0.0000000000000000e+00  8.8046640492553916e+00  -1.2015152794684316e+00  -1.2909946300970174e+00  8.5603651585865403e+00  1.7255807693911289e+00  2.0271275026364521e-01  -1.0296267776035370e+00  -4.1775388665653210e+00  -3.9123912270290497e+00  -4.6189545099448930e+00  2.0560817376369460e+00  -6.8378303058714751e+00  6.8392742756826070e+00  -7.1658350207792800e+00  4.7628788874641295e+00  -4.4030631585363649e+00  8.3960179325356432e-01  -1.5390915497838936e+01  -1.0288670458079137e+01  3.7483845914297067e+00  1.6084777528662531e+00  -1.9201159391799564e+01  -7.8554366363079026e-02  8.6809589792739210e+00  -3.9268704132017684e+00  -7.2504650551900474e+00  -3.5606088231520920e+00  -1.1131449773525567e+01  -9.0373603956254804e+00  -8.9789807708026270e+00  -1.3280206391530848e+01  6.7512286248638604e+00  5.6224029914345053e-01  9.3743254355453456e-02  9.6698295219978352e+00  -6.3431018045651513e+00  -1.3478031767458349e+00  -1.2024207987545090e+00  7.0819015225849924e+00  3.5772836163771591e+00  -1.4581366172320251e+00  9.9723921153725428e+00  -9.6348198041087372e+00  8.8517843827105196e+00  -1.5581712983365010e+01  -7.4856471213620788e+00  -1.8509408920438496e+01  -3.3524477222709934e+00  7.1529435592441945e-02  -1.4043782511396824e+01  2.2777860090133082e+00  9.6087871279999639e+00  -3.8477950818121927e+00  -7.4673968168279075e+00  -4.8427365910238089e+00  -8.2442867230772148e+00  -4.3783305262979564e+00  8.9021684333996109e+00  -3.8263975460259902e+00  -1.6217112984579096e+00  -5.7985363799031111e+00  7.8323703322795941e+00  6.5903920567660892e+00  -1.9605601262183889e+01  -1.5907397775656028e+01  -1.3405208009178844e+01  2.1052976122661091e+00  2.6438476808835358e+00  -1.2094034552328974e+01  6.7923766004174650e+00  6.4568130603913536e+00  7.4167150799799337e+00  -8.8696584896691810e-01  -1.5669939426543349e+01  -1.1112406002199027e+01  -1.1489370803672202e+01  3.2804408234300064e+00  6.8233253839784580e-01  3.1775157171340505e+00  -1.8671771091176534e+01  -2.5104184092860904e+00  -4.7342910514805298e-01  -6.5769043349217950e+00  2.7662842875045426e+00  1.2456182388501841e+01  -1.3501514547850039e+01  -3.1919525882706550e+00  4.9928819594458522e+00  -1.4943699282822667e+01  1.1970763498302214e+01  7.4836515755754514e+00  0.0000000000000000e+00  2.8044346746889746e+00  0.0000000000000000e+00  1.3613408404545408e+01  4.6770527219379314e+00  8.7861064809066356e+00  3.6070522709418444e+00  -1.0705494820365345e+01  -4.1467452201378654e+00  4.7290890334331621e+00  -1.1983923376378151e+01  -2.9113542062047055e+00  1.4265537888411817e+00  -6.8344845627753847e-01  -6.3505640279679572e+00  -1.6934545199088532e+01  2.5392036355453915e+00  -1.9261880787104406e+01  -2.0409354935133681e+00  6.5975596506608678e+00  -5.7183662812491161e+00  -1.6509640594572801e+01  -1.9506070054012731e+01  0.0000000000000000e+00  2.6859676312694361e+00  1.8538771256793827e+00  -9.5237206651697832e+00  4.7093337710979686e+00  1.0896634402672589e+01  9.6275629219695471e+00  -1.6027587482151258e+01  -1.1124749345074150e+01  -1.3063220590461755e+01  4.4151943826093500e+00  -1.7615000443700723e+01  -1.2372797844907033e+01  -1.8883602482022077e+01  -1.4914700110530234e+01  -1.5453775997978187e+01  -1.1466151323925555e+01  -1.0138201218645492e+01  2.5425855841790055e+00  4.3996510185871767e+00  -6.4318463819010763e+00  -2.8114602489273639e+00  -2.0447967062163057e+00  -2.9633635118176547e+00  -1.0451891623093513e+01  -5.8676079221441189e+00  -1.5068809572571579e+01  -8.9384030862358905e+00  -8.9655654820827628e+00  -5.4589980825307300e+00  1.0254955524041037e+01  -5.0094469833000916e+00  -4.2862218853552321e+00  -1.0137344891805171e+01  4.7860445328402630e+00  -1.3595926495463406e+01  -9.2610606792228793e+00  1.5071191475036345e+00  -6.0316436558200719e+00  -2.8096590950150975e+00  -8.3479934452135787e+00  -5.5781486997517566e+00  -2.0805295244935103e+00  7.0348349182348935e+00  -5.2310904450432294e-01  -2.0655864924977747e+00  -4.6602608209432339e-01  -5.8810508254895106e+00  3.7118970565848302e+00  5.9431514450372660e+00  -6.3033359567085299e+00  -2.1919799322612086e+00  1.3819711108890025e+00  -1.4337075078395952e+01  1.9175861380942454e-02  6.6379662551517811e+00  6.2489090275664791e+00  1.0271624912379611e+01  0.0000000000000000e+00  -6.6076297482475530e+00  -9.9348745139218053e+00  4.3178265787391723e+00  -6.9108136628237160e+00  -2.8644065640431244e+00  -7.0423200488935036e+00  1.0650574399301691e+01  -8.9222313904185491e+00  1.0412156314906218e+01  1.4122416035054773e+01  1.1473358681548511e+01  4.6611481401270485e+00  -4.7858336453777364e+00  1.0856728541152060e+01  1.7143413268127501e+00  -1.4353281216450627e+01  3.4707962865187826e-02  -1.6781194017292116e+00  5.1398794283492517e+00  6.6998161507135920e+00  1.9852792640092041e+00  -3.2387233063731724e+00  -8.3358547151115991e-01  1.9605949204164619e-01  8.2062752163282813e+00  -1.4273047383640096e+01  5.5737711031067763e+00  9.1355540219259854e+00  4.7196137804315192e+00  4.8976011668770205e+00  9.0937428826808393e+00  -1.5444786127289534e+00  -3.3248217085346057e+00  3.6070230845157867e+00  -6.7211882204688029e+00  -6.5170862284718423e+00  9.0702481888048538e+00  1.0700840783549326e+01  1.2696655907950374e+01  0.0000000000000000e+00  0.0000000000000000e+00  0.0000000000000000e+00  1.4979048968954070e+01  1.1688536546071466e+01  9.2028373952659148e+00  1.3822366202625092e+01  0.0000000000000000e+00  1.1537725825429051e+01  1.2198807009040024e+01  -1.6457335641148081e+01  -9.3332919531379788e-01  -2.5058138461734671e+00  1.1136672783769949e+01  7.2687671437691055e+00  -1.3826339722795467e+00  7.8738624188384365e-01  -2.8492248970934506e+00  1.6861498702614253e-01  3.7916903990171641e-01  -1.1118724160596136e+01  -9.0223219102412457e+00  -1.7151529143824252e+01  5.3128442701129741e-01  -3.2143414207072181e+00  -2.6122021151394357e+00  -9.4465141694984500e-01  -3.7504579514711716e+00  -1.7462093071418845e+01  2.0949614004519108e+00  6.4182669606017384e-01  -8.0434672931834879e+00  -6.2757834527785530e+00  -5.7904255886084055e+00  -1.4176012884375926e+00  -1.7978763367580086e+01  4.0619209504814480e-01  -8.8344351155665706e+00  -1.1731269139387766e+01  -2.2559151386702836e+00  3.8318312930568803e+00  1.0448455593396748e+00  3.9951765741295380e+00  -1.3308238402652242e+01  -1.0022320935039135e+01  -8.5846743556841659e-02  -1.9260847614350833e+01  1.4723116289158225e+00  -2.0688576467310860e+01  1.4694382960370589e+00  2.0339175610099067e+00  -5.7790699808532677e+00  -2.0617970146475685e+01  -1.8409178646506918e+00  2.5137144855783955e+00  -6.7402844671565161e+00  7.2846424757528201e+00  -1.8318864918877844e+00  -1.5460358266326406e+01  1.5187355319964237e+00  2.8361026949421260e+00  2.6088361176113311e+00  6.8432913324323303e+00  6.2032779035688437e+00  4.7423483991522453e+00  -1.1117360993724839e+01  -7.1075784610664909e+00  7.1017759127973985e+00  -5.4290078124630625e+00  6.3764797665524134e-02  -9.9797737285326882e+00  -1.6132037544722674e+01  -1.1192761068499426e+01  -1.5578490231574046e+01  -1.9674961506049819e+01  -1.3793436062570366e+01  -7.7507033517027510e+00  8.5920906437637896e+00  -1.9089119159404646e+01  2.0334796704351183e+00  -1.7838758060684437e+01  1.0630834427825031e+01  -1.3292418894141413e+01  -2.0867909849028983e+01  -1.7428385595909173e+01  1.0549828327619055e+01  6.5649924823471952e+00  -1.2094021929426322e+01  -1.4238421677735007e+01  -4.1002526269230870e+00  -5.7357860251406150e+00  -1.3553483595931024e+01  7.9298929058548318e+00  -8.7309427731483975e+00  -7.9621299907004603e+00  1.1190500741178729e+01  -2.0163951934801233e+01  -1.7906829001836913e+00  6.5556127801015105e+00  -1.3572583308893179e+01  8.8734614308636637e+00  -1.1354703934290608e+01  -4.9934434985717573e+00  8.2476970432116552e+00  8.4234127287985352e+00  -1.4113619219020476e+01  4.7760222449049490e+00  -2.8342685942078401e+00  9.7065000284171743e-01  -3.5477700715849760e+00  2.1153540491786456e+00  -9.2097434264788658e-01  -1.2897595043446213e+01  -1.0855424087776719e+01  -9.2402380352491242e+00  -4.7639082908502690e+00  1.3141862690110857e+00  -4.9180062103635365e+00  -1.0910111886607103e+01  -9.1885718960361267e+00  -1.1225289810605499e+00  -1.1994255117921169e+01  7.2786658640845792e-01  -1.5318783420639036e+01  -1.1290538422800271e+01  6.0099195959353038e+00  4.0902274084601711e+00  6.4695799985213942e-01  -5.2637812019842549e+00  -1.6804062126517529e+01  -2.9067871510913954e+00  -7.6331320139829000e+00  -7.7053866241047801e+00  -5.3783980661063548e+00  -3.3600859800154432e+00  -1.0803561222304802e+01  -6.2120459628896796e-01  -5.5098778925451803e+00  6.7912982461304603e+00  9.1330707898233605e+00  4.8035361617806025e+00  -1.6635643911214316e+01  -2.6450201541132445e+00  -1.1471223582416613e+01  1.1255348220298176e+01  -3.0043538357392494e+00  4.6242187350329402e+00  -6.9964375627898090e-01  -1.0451935470214089e+00  -1.4081092988312507e+00  -2.3934632852322419e+00  -1.9204503675369480e+01  1.1742048667425403e+01  7.8745763073181170e+00  8.4876914105744063e+00  9.0185198360863019e+00  -4.5535516694139968e+00  -4.0077901054871301e-01  -1.6747497999461011e+01  -1.7846383554516969e+01  -1.3033896594667217e+01  7.4687652994626944e-02  2.4717185795317262e+00  -3.9628088764022182e+00  -7.1954148310577288e+00  -9.9332910843581761e+00  -4.2944597335191155e+00  -2.9575844447043207e+00  1.1899147152641365e+01  9.5587415129157671e-01  3.1878701278467996e+00  -8.5217411718213221e+00  1.0659262665560858e+01  7.6177099490654310e-01  6.8122937524089666e+00  -1.9749868691233438e+01  8.7287706157327012e+00  7.1518371836731554e+00  8.8159537129852854e+00  -1.3192538605969593e+01  -4.9886557062614409e+00  -1.1358540513818287e+00  -1.6602355332804453e+00  -4.3602803290507586e+00  -9.5210657166290744e+00  1.8833722747037915e+00  -7.8221556018743152e+00  -9.2016069149070638e+00  -7.4614899943214326e+00  -5.9114127186515999e+00  9.8832908309458229e+00  7.7573287689778354e+00  8.3534465783436644e+00  1.1338007213566677e+01  9.0740132377153895e+00  5.3984740674880642e+00  -9.5226318727895070e+00  -9.7078750912527578e+00  -2.5088251545661833e+00  7.3395142627071666e+00  4.8907250790271615e+00  -7.2116311597797402e+00  -2.1362869853462115e+01  -7.6285244717475083e+00  -7.8044874652193226e+00  3.1720060873655123e+00  -1.6805747781903864e+00  8.3704680482705403e+00  -8.2592874282182827e+00  -1.3385894622706989e+01  2.5549036750992338e+00  -1.0257986704948113e+01  2.3268177774631518e-01  -1.1614744294057416e-01  -3.8519277296921350e-01  2.3369071519027615e+00  -1.2941789118257132e+01  -1.3624387734787980e+01  -3.8350474732602740e+00  -3.3293126944082099e+00  -5.4848965420578057e+00  -4.7480249283027289e+00  5.6112305711241408e+00  -1.0287837266868646e+01  -1.9560700157794031e-01  2.8161163414696553e+00  4.0072166462068735e+00  5.7341787928547978e+00  8.9920769388214072e+00  -1.5032905921828961e+01  -1.2286747123604069e+01  -9.2545139416169757e+00  5.7881384481496019e+00  6.4321500399751601e+00  3.1855486502515582e+00  -2.8660627406223766e+00  6.8363319687708712e-01  4.3323814166872578e+00  -1.4601299292433350e+01  -5.6799753483810305e+00  -4.2190961546328518e+00  7.1085648265969157e+00  -1.2439089676614421e+00  -8.3109714348915098e+00  -6.5864665418668435e+00  -4.4788166417138831e+00  -1.5205577440190574e+01  3.4762101148711166e+00  1.4922285494701741e+00  3.6600660796338396e+00  -2.7308527360656933e+00  -1.1391043850531475e+00  -1.9411830509875785e+00  -5.6400924980564380e+00  2.8560392467482285e+00  -1.1911438655006650e+01  -3.9991205766093101e+00  -1.4956065439673376e+00  4.9562710922691240e+00  8.3947904030884430e+00  4.9760233086606478e+00  -4.9237727565601901e+00  -8.4855605686105591e+00  2.8024124111854389e+00  -1.4846294446382817e+01  -9.6914197440082575e+00  9.2042780420933781e+00  5.8436669420375020e-01  -1.8711273168145365e+01  -1.2722654288963369e+01  -1.1576117548534638e+01  7.9948965362856272e+00  2.5158506399653056e+00  -1.4010149406968127e+01  -1.2267345583585708e+01  -1.4503347911430922e+01  -3.7125062949288412e+00  -1.5728168554661528e+01  -1.7656689436682917e+01  7.9660767603551097e+00  6.3928883115724968e+00  -5.6622709818629806e+00  -1.1824229052878206e+01  1.2556488291394878e+01  -2.4219621374104734e+00  3.5518073231103755e+00  1.1908988287931606e+01  -1.2554836422391160e+01  -1.5322197035598814e+01  -1.2092475417863178e+00  1.0146725881624487e+01  1.1770203537710445e+01  1.3256367551802089e+01  -1.2727427508557250e+01  1.1333853655716116e+01  -2.1755943949084999e+00  -3.2752688160417294e-03  4.4226463760697393e-01  -1.7569599552300335e+00  5.5174754202784437e-01  -1.1451759794595588e+01  -1.7436368817833184e+01  6.4055275119930482e+00  -1.5026902223880358e+01  1.4369663603292968e+00  -8.9438522028668501e+00  -1.2547234316758384e+00  6.5670477999888242e+00  5.3645768674991512e+00  2.4527451525194723e+00  6.4819714871744483e-01  7.5492259183014490e+00  -6.2240359291058596e+00  -2.0189714214983297e+01  9.7354429995875691e+00  -1.4423927751079260e+00  1.0233834644367509e+01  7.7068312145266686e+00  -1.6479983923261283e+01  7.2054516040806471e-01  -1.0617941338354293e+00  -8.2850618984610291e-01  1.6332472439607284e+00  -7.9509557989080175e+00  3.0707418468811252e+00  4.1517015457638395e+00  -1.6590448184443304e+01  -6.2534302425766102e+00  -3.4562725866526236e+00  -3.2630583523041898e+00  -1.8348291047033427e+00  -2.1756894949320078e+01  -1.0342900094276446e+01  -1.2110189884982960e+01  -1.7987969183547250e+01  1.0832228601163516e+00  3.5653109797447957e-01  -1.1182606170783430e+01  1.6021334062295141e+00  4.1638856034058138e+00  4.9182009706621610e+00  9.3926595092949281e+00  -1.0241142826801417e+01  -6.1341534119002219e+00  1.6290764796246489e+00  5.9748311382320614e+00  3.4576805514145263e+00  4.7069409713794155e+00  2.0560950934341160e+00  -5.6068652197920734e+00  4.9457881433942150e+00  -1.1566641303731254e+01  -1.3110115209702064e+01  1.7245646007543050e+00  -2.2218727159562786e+00  -1.1053102225548434e+01  -1.9907899444067002e+01  1.5452407561727768e-01  -1.7293451810342727e+01  -1.9238994173321487e+01  -1.7408210253482419e+01  6.0390055757312524e+00  3.9389798345070033e+00  -5.5377384817253255e+00  3.7837619985162734e+00  3.1213130263037643e+00  3.8495481303531015e-01  9.4742080641179460e-01  3.4092294962861898e+00  -9.1417996191946393e+00  -6.7178077767031867e+00  -1.6145390866734310e+01  -1.4246359053669966e+01  -2.0681007188955178e+01  6.3587166044863634e+00  6.8369329122726985e-01  5.1021467718983589e+00  -8.5275272100181461e+00  -3.4960413469090590e-01  -7.6239937991399689e+00  -1.9322837969904352e+01  -1.8153507117456847e+01  -2.1049743955324377e+01  -4.7561651146906909e+00  -1.6410372069156733e+00  -1.1338348943769631e+01  3.9480242896569036e+00  -1.3390405931405843e+01  7.3293247623117006e+00  8.7336635456862535e+00  -1.5214004524155067e+01  -1.1716683074193535e+01  4.5329264538856218e-01  -7.2963487164440899e+00  9.0348668973411037e+00  1.3380801181900439e+00  6.7297575957283784e-01  -2.8257059839861824e+00  -2.7251084717460992e+00  -1.0981046098647699e+01  -2.0174618167541045e+01  8.2320673561888960e+00  7.5555286323294579e+00  6.2474820318770226e+00  -7.5470887712435719e-01  8.1842579378606128e+00  9.3370504236299059e+00  7.4429005222458420e+00  -8.2084669081116335e+00  6.0895800982927695e-01  2.2558704784493959e+00  -3.5773200357496489e+00  -1.2377984893801846e+01  9.7376134818092357e+00  1.5646714578434229e-01  -2.1713505132003746e+01  -7.8907870132471265e+00  -1.6227572167209527e+01  2.2624155531093435e+00  2.9722868540939986e+00  -1.5935890647841598e+01  -1.0294677087875861e+01  -1.8343369762151720e+00  -1.0297611732127335e+01  -8.6552863663407784e+00  -1.1129529494696353e+01  -4.7935662052328212e+00  4.8350408320214875e+00  -2.0560588691246334e+01  -1.5781478211709357e+00  -4.89304