<?xml version="1.0"?>
<VTKFile type="UnstructuredGrid"  version="0.1"  >
<UnstructuredGrid>
<Piece  NumberOfPoints="4835" NumberOfCells="9296">
<Points>
<DataArray  type="Float64"  NumberOfComponents="3"  format="ascii">0 1.5 0  -0 0.1307014797437256 0  0.01134725726173103 0.1483581566929452 0  0.04283342385313163 0.181379897845022 0  0.08000000000000007 0.2078460969082653 0  0.1215036888038188 0.2268001964915204 0  0.1658444388144116 0.2375571460514239 0  0.2114196597976982 0.2397281614039219 0  0.2565821445222626 0.23323477639765 0  0.2996996031204527 0.2183116788850844 0  0.3392136582970876 0.1954982284920806 0  0.3736961691452169 0.1656189627557069 0  0.4019008478794835 0.1297537961893434 0  0.4059948616314525 0.1218125174167552 0  0.4254856317806581 0.1498156710261111 0  0.4592156240140376 0.1818784194956707 0  0.498709345141744 0.2064950441012706 0  0.5423499175804942 0.222657737339227 0  0.588350691167096 0.2297047966493422 0  0.6348283888260526 0.2273477145954656 0  0.6798802081543086 0.2156829903938285 0  0.7216617223752013 0.1951881792237927 0  0.7584623913874079 0.1667023410626976 0  0.7879811633353602 0.1323170874919288 0  0.8152477706948351 0.1684239109116393 0  0.849341340905186 0.1995043068200599 0  0.8885654110558655 0.2237908228387656 0  0.9315842524819793 0.2404564107932048 0  0.9769329101341745 0.2489335440737586 0  1.023067089865825 0.2489335440737586 0  1.068415747518021 0.2404564107932048 0  1.111434588944135 0.2237908228387656 0  1.150658659094814 0.1995043068200599 0  1.184752229305165 0.1684239109116393 0  1.212554283932403 0.1316080407193389 0  1.233118057351089 0.09031041654678823 0  1.245743274920975 0.04593737945414259 0  1.25 0 0  1.36108673858246 0 0  1.36108673858246 0.02281345039300389 0  1.369721686332521 0.06761581364194322 0  1.386679492322819 0.1099743652145785 0  1.411347257261731 0.1483581566929452 0  1.442833423853132 0.181379897845022 0  1.48 0.2078460969082653 0  1.521503688803819 0.2268001964915204 0  1.565844438814412 0.2375571460514239 0  1.611419659797698 0.2397281614039219 0  1.656582144522263 0.23323477639765 0  1.699699603120453 0.2183116788850844 0  1.739213658297088 0.1954982284920806 0  1.765497292517293 0.1727233297951148 0  1.79 0.1905255888325765 0  1.832016261237511 0.2092324335849338 0  1.877003738081116 0.2187948169810202 0  1.922996261918884 0.2187948169810201 0  1.967983738762488 0.2092324335849338 0  2.01 0.1905255888325765 0  2.047208733398949 0.1634918616050267 0  2.077983738762488 0.1293127555043441 0  2.087980221556173 0.1119983394086949 0  2.111347257261731 0.1483581566929452 0  2.142833423853131 0.181379897845022 0  2.18 0.2078460969082653 0  2.221503688803819 0.2268001964915204 0  2.265844438814411 0.2375571460514239 0  2.311419659797698 0.2397281614039219 0  2.356582144522263 0.23323477639765 0  2.399699603120453 0.2183116788850844 0  2.439213658297088 0.1954982284920806 0  2.457172785224357 0.179936556425434 0  2.459215624014038 0.1818784194956707 0  2.498709345141744 0.2064950441012706 0  2.542349917580494 0.222657737339227 0  2.588350691167096 0.2297047966493422 0  2.634828388826053 0.2273477145954656 0  2.679880208154309 0.2156829903938285 0  2.721661722375202 0.1951881792237927 0  2.758462391387408 0.1667023410626976 0  2.788775591477674 0.1313916894718022 0  2.811360296672653 0.09070184667606328 0  2.825291886488074 0.04629865962039181 0  2.83 0 0  3 0 0  3 1.5 0  0 0.8023345134541607 0  0.4157402467060553 0.1358140942214332 0  3 0.75 0  1.5 1.5 0  0 0.4665179965989431 0  3 0.375 0  0 0.2986097381713344 0  0 0.21465560895753 0  0 0.1726785443506278 0  0 0.1516900120471767 0  2.25 1.5 0  0.75 1.5 0  1.169989811679434 0.9093651732355621 0  1.875 0.9142758100523694 0  0.5779365036100435 0.9330077223331824 0  2.43246936225428 0.7976868957014953 0  3 1.125 0  2.625 1.5 0  0.375 1.5 0  0 1.15116725672708 0  1.449253057879235 0.6213873587688492 0  0.7697361971202799 0.5943793911944208 0  0.3630076616442724 0.6080350564914153 0  2.069570984533324 0.5812833454367354 0  1.875 1.5 0  1.125 1.5 0  2.4375 1.173854331507092 0  0.8831005780031504 1.150004411874495 0  1.52207987625039 0.9714054497350916 0  2.0625 1.207137905026185 0  1.107793318688589 0.5766433232347881 0  1.3125 1.2274095306559 0  2.729985961523573 0.9375 0  2.711750443384031 0.5625 0  1.6875 1.243073622519403 0  1.760894209596057 0.6242614373612321 0  0.2643049832376852 0.9767508850906206 0  0.4566194854768236 1.209399638766609 0  2.728217267602858 1.228217267602858 0  2.374499195658668 0.518153287180279 0  2.169650674143702 0.9320836008992801 0  0.8550719231757007 0.8663457099410541 0  1.303567858855371 0.4078893824383345 0  0.2133194436665546 1.297827371069245 0  0.5308017499037517 0.4517023193912283 0  1.083077097725883 1.270382833575872 0  0.6830238102386342 1.274223132985906 0  2.250983943328481 0.6895458766515071 0  1.81089184968521 0.4192208869708923 0  1.679274712803154 0.8238291020339636 0  1.5785148524717 0.4510287526682343 0  0 0.6344262550265519 0  0.2138866804674432 0.765685327335986 0  0.5683532856219899 0.6602211278972628 0  0.9375 1.5 0  0.93201471049342 0.4568525359126817 0  1.262687644113192 0.7198627504483751 0  0.4154000952342595 0.8069446327163143 0  0.2139559556345817 0.4540330649264536 0  2.06977986811652 0.3813318272583126 0  0.7200651071201811 0.4061566188086219 0  1.932157822851692 0.7243325602448901 0  0.9441947922338874 0.689010158618046 0  3 1.3125 0  2.8125 1.5 0  0.5625 1.5 0  1.865575888969794 1.126762336039809 0  1.691368628814911 1.054521333692312 0  2.243682835689564 1.11932177110543 0  2.294933652681559 1.30886281903233 0  2.4375 1.5 0  2.385653526545621 0.9864303388879195 0  2.560603055863368 1.320052196970997 0  2.605098352881707 1.08210421072607 0  2.797310903081369 0.7462827406561878 0  1.497248537655819 1.30111187331848 0  1.6875 1.5 0  3 0.5625 0  3 0.9375 0  1.3125 1.5 0  2.0625 1.5 0  3 0.1875 0  0.1875 1.5 0  0.9978323986844071 0.9954535003819682 0  0.7455388243606953 1.020382929522352 0  1.904625246064701 1.312514164033404 0  1.15622562020362 1.097022204090454 0  1.332774827327096 1.015638362851981 0  2.617489052932561 0.7904306825848915 0  2.798834931624827 0.3810601956207291 0  2.518702939674024 0.6340258449062608 0  1.42862153170688 0.8082655083169574 0  2.016051725629557 1.02698392558818 0  2.557580898838836 0.4303899543284488 0  0.9143579924460792 1.324371521638632 0  0.6907201107072946 0.792483910827579 0  0 1.32558362836354 0  0 0.9767508850906206 0  0.6046140448732628 1.120294499938289 0  1.129353874055204 0.4037183319394277 0  2.240578803971554 0.4086758810341738 0  1.544887400155686 1.138911442832316 0  2.828734594747712 1.083464790593587 0  0.401358428169992 0.3487630281226344 0  0.1737226743516005 1.126953194380642 0  1.219293394173851 1.36370476532795 0  2.095593203128485 0.7438044944874065 0  1.099947866649755 0.7404984974094087 0  0.4225987016856009 0.9654760294046846 0  1.265404984472296 0.5615537191035901 0  1.908099381276504 0.55154028811489 0  1.605233217264331 0.6055204891939014 0  0.2070403235706232 0.6098576665994301 0  0.46875 1.369568887475175 0  2.529999076220762 0.9220559311443081 0  0.3296306516835505 1.118561581461605 0  2.136891098712708 1.353568952513092 0  0.1250262355603041 0.8895426992723907 0  2.286468869522623 0.8363516131379349 0  2.03024950667879 0.8782110935537075 0  2.71875 1.380113023166798 0  2.851157149000174 1.312122703709591 0  2.855875221692015 0.6072101925796368 0  1.766081959310164 1.371536811259701 0  2.417227117459742 0.3724437385102629 0  1.365276810157265 1.363519047380362 0  1.451310499971155 0.3640091006357036 0  2.211012611580202 0.5503989260541815 0  1.306789156675977 0.2570819477057019 0  2.872418607762505 0.256220469598872 0  2.896902016958361 0.84375 0  0.6487095286926469 0.5256523827174592 0  1.021477811485347 1.13286821063065 0  1.622350554793597 1.371881362989231 0  1.297557547403682 0.854343314165958 0  0.5529398034156436 0.7974238691464364 0  1.000783388185185 0.848708117631217 0  0.8152141294141361 0.735251676415229 0  2.383386472338196 0.654760318649699 0  1.031024064601143 1.39833771698851 0  1.812756223744312 0.7919737740986065 0  2.902150447032281 0.46875 0  1.558478314279628 0.7430881247578319 0  2.428095049619715 1.306700780290589 0  0.3309906154406318 1.369459454266083 0  0.117457385934373 0.361895434578648 0  0.4016309285334721 0.4812757168525422 0  1.933925005895449 0.3564723397117748 0  0.7479761182598068 1.155601287121883 0  0.09711831342126455 1.23837544254531 0  1.384025258268523 0.5094422387329146 0  2.188092881729461 1.235445092789212 0  0.116614462422195 1.388212202394539 0  0.5993432477835932 1.374610260003488 0  0.8731519049868882 1.022757560732678 0  0.1109021857268646 0.5275252102504697 0  1.703820060431276 0.5017282682884084 0  0.1118224159219883 0.6921053365242938 0  0.3267069786561488 1.244030051070764 0  2.878127312164905 0.9679608000003684 0  1.408346090782441 1.129729637108486 0  0.8047358880839842 0.3153623688883521 0  2.6405066654848 0.6664933064830099 0  0.4805702216488833 1.081724858267193 0  2.668084598222495 0.3562155878484895 0  2.138121375887776 1.052804865904559 0  1.96875 1.5 0  0.4891907154726056 0.5668366043293971 0  0.1473863332166031 1.0086557402922 0  2.558860649578938 1.196592162044302 0  1.717555244640741 0.3396535732296396 0  0.84375 1.5 0  0.7839942032523698 1.367093097528149 0  3 1.40625 0  2.484124862262918 1.060073596740424 0  3 1.21875 0  2.34375 1.5 0  0.8196209764267471 1.251369088398821 0  2.023202270335131 1.319214170177879 0  0.5721208504581607 1.233781127425821 0  1.984735816620384 0.462442873488178 0  0.6955333931194808 0.9118686683832042 0  1.19123464962554 1.213906677421382 0  0.8929803638185398 0.5752987850534633 0  1.566736823664244 0.8614646887466211 0  1.808684073906441 1.017786844668201 0  1.719105195888173 0.9374041347540488 0  1.671476674178274 0.70476362875428 0  1.218260709491531 0.330629071498573 0  2.839021519587611 1.19788439058923 0  0.5170070740021471 0.3361933937254621 0  1.393527188254162 0.91788143976
[...]
<PointData  Scalars="f_66"> 
<DataArray  type="Float64"  Name="f_66"  format="ascii">1.0922110681377667e+01  -2.7907165125192790e+01  -2.6985649606875491e+01  -2.5169749479255547e+01  -2.3349710337361266e+01  -2.1647388611378432e+01  -2.0655464860412870e+01  -2.1758958948165894e+01  -2.2932168358577091e+01  -2.3486625342576076e+01  -2.3390248725468616e+01  -2.2612702212419229e+01  -2.2234093607823663e+01  -2.2436105389486404e+01  -2.1904884819108837e+01  -2.1056336517080521e+01  -2.0990456842473272e+01  -2.2023989917524752e+01  -2.2441205407701041e+01  -2.2221709162131667e+01  -2.1012750606455068e+01  -2.0097049718224770e+01  -2.0317623262939257e+01  -2.0579401836006202e+01  -2.0498649292083808e+01  -2.1183530075615465e+01  -2.1342080346100254e+01  -2.0652742944966150e+01  -1.9277811385627093e+01  -1.7788204184520982e+01  -1.7782342871141157e+01  -1.9342460604592212e+01  -2.0540568109879988e+01  -2.1750948823748374e+01  -2.2353698186734796e+01  -2.2432065464605678e+01  -2.2344931330158918e+01  -2.3024317210393846e+01  -2.1371335063999251e+01  -2.1321130594309423e+01  -2.0907014917694053e+01  -2.0226907796404152e+01  -1.9716268926459687e+01  -1.9859401965109694e+01  -2.0056936996015484e+01  -1.9422698486118428e+01  -1.8236710658432301e+01  -1.6561985439392313e+01  -1.6112381748236157e+01  -1.7275683925559246e+01  -1.8856800879063236e+01  -1.9968396993178260e+01  -1.9284582017014124e+01  -1.8308927510413454e+01  -1.6925829262738660e+01  -1.5132964280772718e+01  -1.5146766200854151e+01  -1.6738057716862894e+01  -1.8351403906344359e+01  -1.9960418214861388e+01  -2.0738242798058987e+01  -1.8922029719217303e+01  -1.7144829789124977e+01  -1.5388581538525521e+01  -1.3469791537123230e+01  -1.2378738315630297e+01  -1.2865164521421239e+01  -1.3746388209500422e+01  -1.4042365587257938e+01  -1.3398365840512950e+01  -1.3450959597913636e+01  -1.3454056871858269e+01  -1.1839052486520711e+01  -1.0114405492436086e+01  -9.4511996076273874e+00  -9.6642767179473612e+00  -9.5996731790266470e+00  -8.9282226746587376e+00  -7.1036308154996668e+00  -5.0595162209459081e+00  -3.9850022569414922e+00  -3.7684219452030456e+00  -3.7891789705864367e+00  0.0000000000000000e+00  0.0000000000000000e+00  -9.0010758105647195e+00  -2.2195777537069169e+01  0.0000000000000000e+00  1.4714725757207868e+01  -1.7568806911858680e+01  0.0000000000000000e+00  -2.1609801003816365e+01  -2.3972508916555920e+01  -2.5830492109522343e+01  -2.6858966740496360e+01  1.2201620933930625e+01  9.8680875317123515e+00  -2.8335599311431827e+00  -7.7734331671510370e-01  -3.9251603189811939e+00  -1.6498677970632076e+00  0.0000000000000000e+00  1.1228720817720472e+01  1.0258699087235167e+01  2.6528065981440974e-01  -9.0882839355910825e+00  -1.1872625194449807e+01  -1.2771782496856671e+01  -7.5359023888835717e+00  1.3558472805675301e+01  1.2196662985642899e+01  5.0622439222017936e+00  2.3612990988460729e+00  -3.4075907027532210e-01  6.2129083580261248e+00  -1.1226706641441284e+01  5.4153381988384108e+00  6.7196193838805940e-01  -3.3087281886310991e+00  6.5989210212741227e+00  -7.9082846076057693e+00  -3.6732195910851262e+00  2.7360746890523591e+00  4.1408459646687952e+00  -6.9898256538018284e+00  2.8237485766840831e-01  -4.8087406591534299e+00  -1.4772164255393170e+01  4.3937205516994977e+00  -1.6273082046936828e+01  5.8806228698571168e+00  4.9698608674613407e+00  -4.3500706183849669e+00  -1.2600006293981734e+01  -3.4469847943548926e+00  -1.2836837607338692e+01  -1.3342728134988166e+01  -9.2404167745836290e+00  -1.0853206713059393e+01  1.2783713165024562e+01  -1.4749729524530682e+01  -7.2096181946678142e+00  -7.5690998366057336e+00  -1.7128115169326069e+01  -1.2071202470417674e+01  -1.6765083920712801e+01  -4.9271409620826354e+00  -8.9444270591697919e+00  0.0000000000000000e+00  7.1742714418620164e+00  1.1861225397878814e+01  4.1368091148993731e+00  2.0719815636696084e+00  4.2875278916063539e+00  8.3392330427975665e+00  1.3986851171186716e+01  1.6476455463293931e+00  7.3616896082052001e+00  3.0006974176362990e+00  -9.8257911176622048e-01  7.6958675900197129e+00  1.2407450539470757e+01  0.0000000000000000e+00  0.0000000000000000e+00  1.1743432435428732e+01  1.4812441087376726e+01  0.0000000000000000e+00  8.8824554992214182e+00  -1.1605733514833858e+00  -1.2515525195771968e+00  8.6050882897737022e+00  1.7641370849005149e+00  2.4321344267017631e-01  -9.9188097192038205e-01  -4.2010773366602541e+00  -3.8875110663472556e+00  -4.5800582236499787e+00  2.0973781859225338e+00  -6.8141243871808825e+00  6.8829328070651901e+00  -7.1250615488652791e+00  4.8015154707680727e+00  -4.3641541615258372e+00  8.7871307971349510e-01  -1.5350894594110040e+01  -1.0255512588869900e+01  3.7894954454354757e+00  1.6312754277084871e+00  -1.9153295503438542e+01  -4.1334107032283011e-02  8.7300163425590860e+00  -3.8899170264795324e+00  -7.2112977778368181e+00  -3.5208170138110053e+00  -1.1087615776764025e+01  -9.0005324202614663e+00  -8.9403567795519869e+00  -1.3239714464875398e+01  6.7966095687600054e+00  5.9694450823768708e-01  1.3293387199536483e-01  9.7205632289380333e+00  -6.3035491408878830e+00  -1.3071928424081092e+00  -1.1621331803704749e+00  7.1429750375560577e+00  3.6112383051463834e+00  -1.4514021181407526e+00  1.0021964527866245e+01  -9.6071044971951753e+00  8.8984459182312854e+00  -1.5537785460180014e+01  -7.4532530820390734e+00  -1.8454200667064917e+01  -3.3780817037051682e+00  9.4220000703720871e-02  -1.4002901351520055e+01  2.3183261459502571e+00  9.6583744990255767e+00  -3.8065253249724145e+00  -7.4285985655503888e+00  -4.8018532632899742e+00  -8.2052492327401900e+00  -4.3461277373095859e+00  8.9574002337199090e+00  -3.7880243353778638e+00  -1.6212470853193366e+00  -5.7589268130260773e+00  7.8805763149630046e+00  6.6360472582467258e+00  -1.9553466161401150e+01  -1.5863720155959317e+01  -1.3362582132786731e+01  2.1445169188181739e+00  2.6820943152793237e+00  -1.2052303045562079e+01  6.8357994381361076e+00  6.5024517111016742e+00  7.4662223714362232e+00  -8.4826192140558276e-01  -1.5626333508140547e+01  -1.1074887307942022e+01  -1.1447975296846135e+01  3.3193960495794812e+00  7.0879695664161135e-01  3.2162369462464211e+00  -1.8622478282633384e+01  -2.4796820856405639e+00  -4.3563942097297403e-01  -6.5699917178481737e+00  2.8059539315817763e+00  1.2550452269525344e+01  -1.3461278587671243e+01  -3.1534923042187781e+00  5.0391533808466553e+00  -1.4902782347039420e+01  1.2055781081239292e+01  7.5278972556374297e+00  0.0000000000000000e+00  2.8404141827030394e+00  0.0000000000000000e+00  1.3706634784411248e+01  4.7147305230366774e+00  8.8298029850094277e+00  3.6450871690310227e+00  -1.0667836152950306e+01  -4.1060943044554472e+00  4.7689336358464471e+00  -1.1944016413307686e+01  -2.8712043411395971e+00  1.4663535683781268e+00  -6.4409971815886768e-01  -6.3116369221552961e+00  -1.6883612369316548e+01  2.5677289176860829e+00  -1.9215817785170611e+01  -2.0018279182077601e+00  6.6393517950135568e+00  -5.6779260422546232e+00  -1.6464665290226112e+01  -1.9455979177017714e+01  0.0000000000000000e+00  2.7185900573690973e+00  1.8962491829183001e+00  -9.4901046099261972e+00  4.7507622190395891e+00  1.0995389884232097e+01  9.6836706682918212e+00  -1.5986209544997886e+01  -1.1084050849914846e+01  -1.3023340220977664e+01  4.4549283234354524e+00  -1.7565199517030649e+01  -1.2333087991421392e+01  -1.8834841531486774e+01  -1.4873030683817923e+01  -1.5412579303831219e+01  -1.1426837693412795e+01  -1.0097336666817043e+01  2.5840193573673060e+00  4.4414018261723278e+00  -6.3930473324282397e+00  -2.8200853660393732e+00  -2.0093248727911148e+00  -2.9973884054629525e+00  -1.0411358455217661e+01  -5.8343018207728896e+00  -1.5020563382343333e+01  -8.8968520419831378e+00  -8.9254205438986070e+00  -5.4189712963405903e+00  1.0315585880624605e+01  -4.9945255960843502e+00  -4.2567339492766925e+00  -1.0100175208078973e+01  4.8159044614845712e+00  -1.3551961645826870e+01  -9.2366363384612509e+00  1.5474692540031456e+00  -6.0111432028235221e+00  -2.7711513347502215e+00  -8.3073666102894368e+00  -5.5395249206460271e+00  -2.0408386072274989e+00  7.0769906291851026e+00  -5.0649129631117618e-01  -2.0600203084965467e+00  -4.4656980573083233e-01  -5.8449338293594666e+00  3.7561547236702038e+00  5.9891563973208335e+00  -6.3356199883040585e+00  -2.2018253636009590e+00  1.4262896961483549e+00  -1.4292643704386153e+01  5.9525864503129487e-02  6.6773744087723603e+00  6.2910015787628364e+00  1.0326456388784996e+01  0.0000000000000000e+00  -6.5673622103569320e+00  -9.8948529004995009e+00  4.3586201003155436e+00  -6.8725749589432388e+00  -2.8258262731761339e+00  -7.0052065322660484e+00  1.0708274498869937e+01  -8.8817972469204634e+00  1.0470837789820010e+01  1.4215906084132627e+01  1.1554961782269759e+01  4.7005366896382501e+00  -4.7468695525104909e+00  1.0910313959497087e+01  1.7537079764922816e+00  -1.4312374880823487e+01  6.7663641484207698e-02  -1.6368799025907050e+00  5.1794098450674069e+00  6.7424252175398749e+00  2.0214931248709243e+00  -3.1981412963954123e+00  -7.9510216127570577e-01  2.1078740638537272e-01  8.2480716724561436e+00  -1.4233083793548776e+01  5.6244462633297330e+00  9.2008404371467911e+00  4.7599044764420251e+00  4.9389666522571556e+00  9.1518872198781374e+00  -1.5064032895394668e+00  -3.2862137460108056e+00  3.6453163137004996e+00  -6.6821741485708612e+00  -6.4767386894229224e+00  9.1448727521952833e+00  1.0792215974406487e+01  1.2781638701767681e+01  0.0000000000000000e+00  0.0000000000000000e+00  0.0000000000000000e+00  1.5083669328565037e+01  1.1821287594416111e+01  9.2890102950268645e+00  1.3926489078685579e+01  0.0000000000000000e+00  1.1632947039039987e+01  1.2279915985177116e+01  -1.6415484415442009e+01  -9.0207418160862762e-01  -2.4795038881169456e+00  1.1195454682445606e+01  7.3136664885542126e+00  -1.3439739713841778e+00  8.2818382897314069e-01  -2.8095183556895971e+00  2.0987796076031009e-01  4.1981933853334036e-01  -1.1084999194741654e+01  -8.9914101703055689e+00  -1.7107474301896811e+01  5.6910627606923947e-01  -3.1746799278351134e+00  -2.5730431142584074e+00  -9.0416308025963898e-01  -3.7682748458202346e+00  -1.7414462794396520e+01  2.1359255560466646e+00  6.8171851551693952e-01  -8.0099106038703933e+00  -6.2366041716523277e+00  -5.7502664707230888e+00  -1.3950122985108697e+00  -1.7925656198975641e+01  4.4895420847440765e-01  -8.7942101667814274e+00  -1.1694234124861426e+01  -2.2159818950600076e+00  3.8732612320552540e+00  1.0784076311121791e+00  4.0438627978574937e+00  -1.3269405735117822e+01  -9.9828313568066473e+00  -4.5533170728172853e-02  -1.9204047655719521e+01  1.5120204944993971e+00  -2.0615624457583671e+01  1.4908373476123555e+00  2.0792769706144725e+00  -5.7406513272130359e+00  -2.0538729770626936e+01  -1.8034705189832849e+00  2.5528487011662180e+00  -6.7021251975178568e+00  7.3380737186923568e+00  -1.7928951217949607e+00  -1.5389524510830674e+01  1.5556917308288192e+00  2.8764684066681045e+00  2.6531534781980746e+00  6.8861520703902164e+00  6.2457698858050810e+00  4.7798799745718705e+00  -1.1084440725236073e+01  -7.0668758582298379e+00  7.1546813072589011e+00  -5.4044428444461303e+00  1.0246526066215976e-01  -9.9380332238240285e+00  -1.6085020862583590e+01  -1.1151052462564390e+01  -1.5537420920328161e+01  -1.9624012400977570e+01  -1.3753154908805140e+01  -7.7309709825608746e+00  8.6387801295503035e+00  -1.9024623131188097e+01  2.0743268060642928e+00  -1.7792865740295444e+01  1.0699102108343052e+01  -1.3253053748724007e+01  -2.0809194058584854e+01  -1.7384396851809182e+01  1.0606880387797593e+01  6.6072710188691897e+00  -1.2047756910960013e+01  -1.4198485143360083e+01  -4.0662517314476512e+00  -5.6988199423475896e+00  -1.3511405015280339e+01  7.9746249323529268e+00  -8.6931273992660554e+00  -7.9228907430748281e+00  1.1252024583714006e+01  -2.0107629131532992e+01  -1.7508342950886344e+00  6.5956060561416523e+00  -1.3532268525340653e+01  8.9246207663911612e+00  -1.1318001413547343e+01  -5.0056023882707139e+00  8.3120960925395622e+00  8.4749053653545268e+00  -1.4070949266907807e+01  4.8160981491272556e+00  -2.7973423149420462e+00  1.0095219533110771e+00  -3.5097494702298135e+00  2.1554930725667560e+00  -8.8229698213494512e-01  -1.2851945000614126e+01  -1.0814360659147779e+01  -9.1977658461848826e+00  -4.7255174956505925e+00  1.3472752853100169e+00  -4.8788743283987097e+00  -1.0871981633657549e+01  -9.1504107759500233e+00  -1.0848435490469619e+00  -1.1953628729557913e+01  7.6725733548562591e-01  -1.5277465167729792e+01  -1.1250507345501026e+01  6.0521330577417718e+00  4.1297293549099132e+00  6.8521883458119726e-01  -5.2261190823997179e+00  -1.6750112565180732e+01  -2.9802074547202584e+00  -7.6115296450233831e+00  -7.6651658031046290e+00  -5.3387023758432122e+00  -3.3209307127589356e+00  -1.0763279109902639e+01  -6.1074371883446543e-01  -5.4695867746040792e+00  6.8442086981789920e+00  9.2052023096510940e+00  4.8348184574708233e+00  -1.6569833760310463e+01  -2.6126918158857797e+00  -1.1423841886141323e+01  1.1320817136652156e+01  -2.9742102071125487e+00  4.6631948162775281e+00  -6.6178021191511749e-01  -1.0390662579573593e+00  -1.4036144435590472e+00  -2.3968032769084746e+00  -1.9125807453080384e+01  1.1803314569948849e+01  7.9158701781317466e+00  8.5325241575576491e+00  9.0618570160152423e+00  -4.5717641323226532e+00  -3.9055369709519022e-01  -1.6697120501567937e+01  -1.7803069406071661e+01  -1.2992818146713333e+01  1.1180150246932602e-01  2.4936236735398185e+00  -3.9689484332281260e+00  -7.1562212104629328e+00  -9.8933716896367727e+00  -4.2550224088131925e+00  -2.9189093776751762e+00  1.1973026523345640e+01  9.9649611793199766e-01  3.2280057408530785e+00  -8.4823812624262747e+00  1.0732269149324390e+01  7.7774604235227363e-01  6.8577698211179090e+00  -1.9669804884666405e+01  8.7745694917956047e+00  7.1941983838850332e+00  8.8823588238334814e+00  -1.3154976830822731e+01  -4.9491616965778480e+00  -1.0962075956128761e+00  -1.6668942241098255e+00  -4.3860497160938730e+00  -9.4841107087227545e+00  1.9203450119072993e+00  -7.7825828221720901e+00  -9.1699772686759040e+00  -7.4283567312195382e+00  -5.8774723399472046e+00  9.9390949213029458e+00  7.8005019380443255e+00  8.3944933811582718e+00  1.1415386113147985e+01  9.1200380935334948e+00  5.4396324363080781e+00  -9.4833879879915877e+00  -9.6688056173451926e+00  -2.4699563303251617e+00  7.3865009469112257e+00  4.9295939056277565e+00  -7.1712728609622758e+00  -2.1302907851397190e+01  -7.6160098773622353e+00  -7.7651349720742227e+00  3.2033074266163499e+00  -1.6823137655414833e+00  8.4364322294172993e+00  -8.2192251971718324e+00  -1.3347372014012761e+01  2.5959104036324123e+00  -1.0217287534691557e+01  2.5256940771175634e-01  -9.8564955709646587e-02  -3.6891558640059235e-01  2.3764703203749034e+00  -1.2900991474072075e+01  -1.3577262332865777e+01  -3.8106866400915873e+00  -3.2884131442266606e+00  -5.4433678930040443e+00  -4.7078902029955128e+00  5.6574487461604530e+00  -1.0246663296120351e+01  -1.5625206413009454e-01  2.8565060889575844e+00  4.0467878398705919e+00  5.7744023241265978e+00  9.0502874537582301e+00  -1.4979004988832893e+01  -1.2248318125226467e+01  -9.2155020702600403e+00  5.8282759580660679e+00  6.4757462591490107e+00  3.2266382190486222e+00  -2.8256006246371679e+00  7.1263417646443761e-01  4.3724833850042373e+00  -1.4558163715470657e+01  -5.6413990064111408e+00  -4.1802521548731404e+00  7.1499225649766389e+00  -1.2040624708131027e+00  -8.2713512034067751e+00  -6.5476401363237668e+00  -4.4412321483871322e+00  -1.5158243346761521e+01  3.5155907811407623e+00  1.5313910439621814e+00  3.7005765785988265e+00  -2.7391706772573738e+00  -1.1515347529584943e+00  -1.9013912674304576e+00  -5.6145948050868366e+00  2.8936180433617840e+00  -1.1873712439610893e+01  -3.9591390810634346e+00  -1.4550307461538243e+00  4.9958780023356653e+00  8.4514072067359329e+00  5.0066390096649789e+00  -4.8834856696474871e+00  -8.4483645601855049e+00  2.8416300281142379e+00  -1.4799786724031927e+01  -9.6537459653113498e+00  9.2587902562012747e+00  6.2515120158344473e-01  -1.8664686474178293e+01  -1.2682077000736271e+01  -1.1538776267341881e+01  8.0419426476329914e+00  2.5563508703958662e+00  -1.3967582175134066e+01  -1.2226084388740006e+01  -1.4460190201570999e+01  -3.7294256159803565e+00  -1.5686523893020619e+01  -1.7611688503501590e+01  8.0407219947905375e+00  6.4324271051120974e+00  -5.6295204398082683e+00  -1.1784723379675901e+01  1.2648374478112617e+01  -2.3833700487979814e+00  3.5765102132598692e+00  1.1983794358431997e+01  -1.2515128474013268e+01  -1.5281111007838057e+01  -1.1704009656111052e+00  1.0208833946266491e+01  1.1837105343791537e+01  1.3338484862177300e+01  -1.2688118139906736e+01  1.1421308291420607e+01  -2.1371622914912130e+00  3.4146968680914734e-02  4.8169307019400454e-01  -1.7233090117059724e+00  5.9232965174287222e-01  -1.1408287688224654e+01  -1.7391787780687707e+01  6.4497855645982112e+00  -1.4985146205371189e+01  1.4753822071130380e+00  -8.9187596831494833e+00  -1.2142826315459980e+00  6.6099748068764033e+00  5.4069298509495747e+00  2.4969694609048996e+00  6.8562799427435195e-01  7.5932960829890019e+00  -6.2046937399623383e+00  -2.0130683232902882e+01  9.7868841669597568e+00  -1.4039295972475501e+00  1.0310427365171771e+01  7.7558916724276843e+00  -1.6433102279769916e+01  7.5940593554133562e-01  -1.0237642204184176e+00  -7.8785697173696334e-01  1.6717745386800165e+00  -7.9253382520623719e+00  3.1108763829651478e+00  4.1932466437016007e+00  -1.6545412632908203e+01  -6.2805623227445784e+00  -3.4245345112924919e+00  -3.2382026616728643e+00  -1.7996579147837997e+00  -2.1645867814354286e+01  -1.0302598809942246e+01  -1.2068174023868563e+01  -1.7938594433557071e+01  1.1052555613715049e+00  3.8149937031753589e-01  -1.1145720627161213e+01  1.6402774431114553e+00  4.2015078569347946e+00  4.9584461013228882e+00  9.4514883750649261e+00  -1.0203096752146111e+01  -6.0944398976364278e+00  1.6624948193011964e+00  6.0165303170860858e+00  3.5021842185893099e+00  4.7524170890878539e+00  2.0965934515380940e+00  -5.5665432175087668e+00  4.9866611705514563e+00  -1.1526971911895064e+01  -1.3070272814114556e+01  1.7653094491236658e+00  -2.1826878375520105e+00  -1.1013223030955892e+01  -1.9848670706794639e+01  1.9331440749149459e-01  -1.7248996086298643e+01  -1.9182536160134081e+01  -1.7343090666206471e+01  6.0880182336342230e+00  3.9866637639482310e+00  -5.5623529734743542e+00  3.8222921721694982e+00  3.1625150632849341e+00  4.2455099446410649e-01  9.8684868335711395e-01  3.4467304131942837e+00  -9.1008659967926242e+00  -6.6800571192588389e+00  -1.6086812826447471e+01  -1.4203883398246630e+01  -2.0606554830317737e+01  6.3988682573746161e+00  7.2448372416029672e-01  5.1404241358626122e+00  -8.4878296988621535e+00  -3.1450010153650487e-01  -7.5854890616887616e+00  -1.9273975105152925e+01  -1.8110317146530004e+01  -2.0979442667871506e+01  -4.7170990543746036e+00  -1.6032271567662741e+00  -1.1296372955530078e+01  3.9886787492819216e+00  -1.3346033371817370e+01  7.3722482560785210e+00  8.7831990023920241e+00  -1.5174478326765017e+01  -1.1682430367382958e+01  4.7905056682795227e-01  -7.2559703020094677e+00  9.1355476676330358e+00  1.3691848813424039e+00  7.1391513573126220e-01  -2.7857828404951439e+00  -2.6841280878799938e+00  -1.0943905833781059e+01  -2.0123536426632747e+01  8.2772401689946609e+00  7.5984422756422694e+00  6.2889884479626161e+00  -7.2549798120567943e-01  8.2283920194259981e+00  9.3857375699729797e+00  7.4855953475086618e+00  -8.1878957589668335e+00  6.4871453330871542e-01  2.2966283189315910e+00  -3.5374660601816816e+00  -1.2336539701415063e+01  9.8149917135061262e+00  1.9590072713408849e-01  -2.1647924904184677e+01  -7.8513828950794586e+00  -1.6186235034519029e+01  2.3010380405378679e+00  3.0091488294665383e+00  -1.5872606476149180e+01  -1.0257582506290960e+01  -1.8315867766476686e+00  -1.0257176351723201e+01  -8.6144456507579523e+00  -1.1088966276707747e+01  -4.7548902409546905e+00  4.8767809242900597e+00  -2.0491945310999398e+01  -1.5886865266374826e+00  -4.867955