<?xml version="1.0"?>
<VTKFile type="UnstructuredGrid"  version="0.1"  >
<UnstructuredGrid>
<Piece  NumberOfPoints="4835" NumberOfCells="9296">
<Points>
<DataArray  type="Float64"  NumberOfComponents="3"  format="ascii">0 1.5 0  -0 0.1307014797437256 0  0.01134725726173103 0.1483581566929452 0  0.04283342385313163 0.181379897845022 0  0.08000000000000007 0.2078460969082653 0  0.1215036888038188 0.2268001964915204 0  0.1658444388144116 0.2375571460514239 0  0.2114196597976982 0.2397281614039219 0  0.2565821445222626 0.23323477639765 0  0.2996996031204527 0.2183116788850844 0  0.3392136582970876 0.1954982284920806 0  0.3736961691452169 0.1656189627557069 0  0.4019008478794835 0.1297537961893434 0  0.4059948616314525 0.1218125174167552 0  0.4254856317806581 0.1498156710261111 0  0.4592156240140376 0.1818784194956707 0  0.498709345141744 0.2064950441012706 0  0.5423499175804942 0.222657737339227 0  0.588350691167096 0.2297047966493422 0  0.6348283888260526 0.2273477145954656 0  0.6798802081543086 0.2156829903938285 0  0.7216617223752013 0.1951881792237927 0  0.7584623913874079 0.1667023410626976 0  0.7879811633353602 0.1323170874919288 0  0.8152477706948351 0.1684239109116393 0  0.849341340905186 0.1995043068200599 0  0.8885654110558655 0.2237908228387656 0  0.9315842524819793 0.2404564107932048 0  0.9769329101341745 0.2489335440737586 0  1.023067089865825 0.2489335440737586 0  1.068415747518021 0.2404564107932048 0  1.111434588944135 0.2237908228387656 0  1.150658659094814 0.1995043068200599 0  1.184752229305165 0.1684239109116393 0  1.212554283932403 0.1316080407193389 0  1.233118057351089 0.09031041654678823 0  1.245743274920975 0.04593737945414259 0  1.25 0 0  1.36108673858246 0 0  1.36108673858246 0.02281345039300389 0  1.369721686332521 0.06761581364194322 0  1.386679492322819 0.1099743652145785 0  1.411347257261731 0.1483581566929452 0  1.442833423853132 0.181379897845022 0  1.48 0.2078460969082653 0  1.521503688803819 0.2268001964915204 0  1.565844438814412 0.2375571460514239 0  1.611419659797698 0.2397281614039219 0  1.656582144522263 0.23323477639765 0  1.699699603120453 0.2183116788850844 0  1.739213658297088 0.1954982284920806 0  1.765497292517293 0.1727233297951148 0  1.79 0.1905255888325765 0  1.832016261237511 0.2092324335849338 0  1.877003738081116 0.2187948169810202 0  1.922996261918884 0.2187948169810201 0  1.967983738762488 0.2092324335849338 0  2.01 0.1905255888325765 0  2.047208733398949 0.1634918616050267 0  2.077983738762488 0.1293127555043441 0  2.087980221556173 0.1119983394086949 0  2.111347257261731 0.1483581566929452 0  2.142833423853131 0.181379897845022 0  2.18 0.2078460969082653 0  2.221503688803819 0.2268001964915204 0  2.265844438814411 0.2375571460514239 0  2.311419659797698 0.2397281614039219 0  2.356582144522263 0.23323477639765 0  2.399699603120453 0.2183116788850844 0  2.439213658297088 0.1954982284920806 0  2.457172785224357 0.179936556425434 0  2.459215624014038 0.1818784194956707 0  2.498709345141744 0.2064950441012706 0  2.542349917580494 0.222657737339227 0  2.588350691167096 0.2297047966493422 0  2.634828388826053 0.2273477145954656 0  2.679880208154309 0.2156829903938285 0  2.721661722375202 0.1951881792237927 0  2.758462391387408 0.1667023410626976 0  2.788775591477674 0.1313916894718022 0  2.811360296672653 0.09070184667606328 0  2.825291886488074 0.04629865962039181 0  2.83 0 0  3 0 0  3 1.5 0  0 0.8023345134541607 0  0.4157402467060553 0.1358140942214332 0  3 0.75 0  1.5 1.5 0  0 0.4665179965989431 0  3 0.375 0  0 0.2986097381713344 0  0 0.21465560895753 0  0 0.1726785443506278 0  0 0.1516900120471767 0  2.25 1.5 0  0.75 1.5 0  1.169989811679434 0.9093651732355621 0  1.875 0.9142758100523694 0  0.5779365036100435 0.9330077223331824 0  2.43246936225428 0.7976868957014953 0  3 1.125 0  2.625 1.5 0  0.375 1.5 0  0 1.15116725672708 0  1.449253057879235 0.6213873587688492 0  0.7697361971202799 0.5943793911944208 0  0.3630076616442724 0.6080350564914153 0  2.069570984533324 0.5812833454367354 0  1.875 1.5 0  1.125 1.5 0  2.4375 1.173854331507092 0  0.8831005780031504 1.150004411874495 0  1.52207987625039 0.9714054497350916 0  2.0625 1.207137905026185 0  1.107793318688589 0.5766433232347881 0  1.3125 1.2274095306559 0  2.729985961523573 0.9375 0  2.711750443384031 0.5625 0  1.6875 1.243073622519403 0  1.760894209596057 0.6242614373612321 0  0.2643049832376852 0.9767508850906206 0  0.4566194854768236 1.209399638766609 0  2.728217267602858 1.228217267602858 0  2.374499195658668 0.518153287180279 0  2.169650674143702 0.9320836008992801 0  0.8550719231757007 0.8663457099410541 0  1.303567858855371 0.4078893824383345 0  0.2133194436665546 1.297827371069245 0  0.5308017499037517 0.4517023193912283 0  1.083077097725883 1.270382833575872 0  0.6830238102386342 1.274223132985906 0  2.250983943328481 0.6895458766515071 0  1.81089184968521 0.4192208869708923 0  1.679274712803154 0.8238291020339636 0  1.5785148524717 0.4510287526682343 0  0 0.6344262550265519 0  0.2138866804674432 0.765685327335986 0  0.5683532856219899 0.6602211278972628 0  0.9375 1.5 0  0.93201471049342 0.4568525359126817 0  1.262687644113192 0.7198627504483751 0  0.4154000952342595 0.8069446327163143 0  0.2139559556345817 0.4540330649264536 0  2.06977986811652 0.3813318272583126 0  0.7200651071201811 0.4061566188086219 0  1.932157822851692 0.7243325602448901 0  0.9441947922338874 0.689010158618046 0  3 1.3125 0  2.8125 1.5 0  0.5625 1.5 0  1.865575888969794 1.126762336039809 0  1.691368628814911 1.054521333692312 0  2.243682835689564 1.11932177110543 0  2.294933652681559 1.30886281903233 0  2.4375 1.5 0  2.385653526545621 0.9864303388879195 0  2.560603055863368 1.320052196970997 0  2.605098352881707 1.08210421072607 0  2.797310903081369 0.7462827406561878 0  1.497248537655819 1.30111187331848 0  1.6875 1.5 0  3 0.5625 0  3 0.9375 0  1.3125 1.5 0  2.0625 1.5 0  3 0.1875 0  0.1875 1.5 0  0.9978323986844071 0.9954535003819682 0  0.7455388243606953 1.020382929522352 0  1.904625246064701 1.312514164033404 0  1.15622562020362 1.097022204090454 0  1.332774827327096 1.015638362851981 0  2.617489052932561 0.7904306825848915 0  2.798834931624827 0.3810601956207291 0  2.518702939674024 0.6340258449062608 0  1.42862153170688 0.8082655083169574 0  2.016051725629557 1.02698392558818 0  2.557580898838836 0.4303899543284488 0  0.9143579924460792 1.324371521638632 0  0.6907201107072946 0.792483910827579 0  0 1.32558362836354 0  0 0.9767508850906206 0  0.6046140448732628 1.120294499938289 0  1.129353874055204 0.4037183319394277 0  2.240578803971554 0.4086758810341738 0  1.544887400155686 1.138911442832316 0  2.828734594747712 1.083464790593587 0  0.401358428169992 0.3487630281226344 0  0.1737226743516005 1.126953194380642 0  1.219293394173851 1.36370476532795 0  2.095593203128485 0.7438044944874065 0  1.099947866649755 0.7404984974094087 0  0.4225987016856009 0.9654760294046846 0  1.265404984472296 0.5615537191035901 0  1.908099381276504 0.55154028811489 0  1.605233217264331 0.6055204891939014 0  0.2070403235706232 0.6098576665994301 0  0.46875 1.369568887475175 0  2.529999076220762 0.9220559311443081 0  0.3296306516835505 1.118561581461605 0  2.136891098712708 1.353568952513092 0  0.1250262355603041 0.8895426992723907 0  2.286468869522623 0.8363516131379349 0  2.03024950667879 0.8782110935537075 0  2.71875 1.380113023166798 0  2.851157149000174 1.312122703709591 0  2.855875221692015 0.6072101925796368 0  1.766081959310164 1.371536811259701 0  2.417227117459742 0.3724437385102629 0  1.365276810157265 1.363519047380362 0  1.451310499971155 0.3640091006357036 0  2.211012611580202 0.5503989260541815 0  1.306789156675977 0.2570819477057019 0  2.872418607762505 0.256220469598872 0  2.896902016958361 0.84375 0  0.6487095286926469 0.5256523827174592 0  1.021477811485347 1.13286821063065 0  1.622350554793597 1.371881362989231 0  1.297557547403682 0.854343314165958 0  0.5529398034156436 0.7974238691464364 0  1.000783388185185 0.848708117631217 0  0.8152141294141361 0.735251676415229 0  2.383386472338196 0.654760318649699 0  1.031024064601143 1.39833771698851 0  1.812756223744312 0.7919737740986065 0  2.902150447032281 0.46875 0  1.558478314279628 0.7430881247578319 0  2.428095049619715 1.306700780290589 0  0.3309906154406318 1.369459454266083 0  0.117457385934373 0.361895434578648 0  0.4016309285334721 0.4812757168525422 0  1.933925005895449 0.3564723397117748 0  0.7479761182598068 1.155601287121883 0  0.09711831342126455 1.23837544254531 0  1.384025258268523 0.5094422387329146 0  2.188092881729461 1.235445092789212 0  0.116614462422195 1.388212202394539 0  0.5993432477835932 1.374610260003488 0  0.8731519049868882 1.022757560732678 0  0.1109021857268646 0.5275252102504697 0  1.703820060431276 0.5017282682884084 0  0.1118224159219883 0.6921053365242938 0  0.3267069786561488 1.244030051070764 0  2.878127312164905 0.9679608000003684 0  1.408346090782441 1.129729637108486 0  0.8047358880839842 0.3153623688883521 0  2.6405066654848 0.6664933064830099 0  0.4805702216488833 1.081724858267193 0  2.668084598222495 0.3562155878484895 0  2.138121375887776 1.052804865904559 0  1.96875 1.5 0  0.4891907154726056 0.5668366043293971 0  0.1473863332166031 1.0086557402922 0  2.558860649578938 1.196592162044302 0  1.717555244640741 0.3396535732296396 0  0.84375 1.5 0  0.7839942032523698 1.367093097528149 0  3 1.40625 0  2.484124862262918 1.060073596740424 0  3 1.21875 0  2.34375 1.5 0  0.8196209764267471 1.251369088398821 0  2.023202270335131 1.319214170177879 0  0.5721208504581607 1.233781127425821 0  1.984735816620384 0.462442873488178 0  0.6955333931194808 0.9118686683832042 0  1.19123464962554 1.213906677421382 0  0.8929803638185398 0.5752987850534633 0  1.566736823664244 0.8614646887466211 0  1.808684073906441 1.017786844668201 0  1.719105195888173 0.9374041347540488 0  1.671476674178274 0.70476362875428 0  1.218260709491531 0.330629071498573 0  2.839021519587611 1.19788439058923 0  0.5170070740021471 0.3361933937254621 0  1.393527188254162 0.91788143976
[...]
<PointData  Scalars="f_66"> 
<DataArray  type="Float64"  Name="f_66"  format="ascii">1.0707918908489374e+01  -2.8209576506296283e+01  -2.7287451073158966e+01  -2.5461019888926245e+01  -2.3594694087086612e+01  -2.1901906128217281e+01  -2.0958407734355433e+01  -2.1979870119869723e+01  -2.3175884017998055e+01  -2.3738531122623158e+01  -2.3617098294351056e+01  -2.2914673766588319e+01  -2.2562457932830373e+01  -2.2763489988848708e+01  -2.2226400716597567e+01  -2.1363538993963616e+01  -2.1291438487494947e+01  -2.2241022968139095e+01  -2.2691314977161497e+01  -2.2440094709212914e+01  -2.1257758668978674e+01  -2.0406822183582996e+01  -2.0628948835348751e+01  -2.0906305376155579e+01  -2.0817946103664799e+01  -2.1410323944890717e+01  -2.1569607429688705e+01  -2.0901400386351060e+01  -1.9480389172489087e+01  -1.8056513920611270e+01  -1.8042100544225249e+01  -1.9545311644364844e+01  -2.0817886928507328e+01  -2.1983110507438742e+01  -2.2552967444682480e+01  -2.2687562214077449e+01  -2.2696491563267710e+01  -2.3428706162407533e+01  -2.1726767766875859e+01  -2.1673971266802706e+01  -2.1216196039826837e+01  -2.0527042548697604e+01  -2.0024928068684218e+01  -2.0107631764795645e+01  -2.0269977648316313e+01  -1.9658259718791886e+01  -1.8436119840746265e+01  -1.6806816981059864e+01  -1.6375205362535436e+01  -1.7489952134498129e+01  -1.9103889686042571e+01  -2.0235311028802094e+01  -1.9552051818055464e+01  -1.8561532476996007e+01  -1.7129961962899646e+01  -1.5411085552791008e+01  -1.5403362740589513e+01  -1.6936251465965384e+01  -1.8597104587194181e+01  -2.0230969416920384e+01  -2.1010974241487428e+01  -1.9191191817640192e+01  -1.7404914544262823e+01  -1.5589064471469809e+01  -1.3664170701016646e+01  -1.2607433658997715e+01  -1.3037822841606445e+01  -1.3953877876065006e+01  -1.4242735588551387e+01  -1.3676682401996631e+01  -1.3722458269421844e+01  -1.3726013086902345e+01  -1.2013235822033653e+01  -1.0257139433556928e+01  -9.5493986960593169e+00  -9.7376901676001850e+00  -9.6212063279908993e+00  -8.8220549241104713e+00  -7.0369911012370050e+00  -5.0407229172191768e+00  -3.9396046893322390e+00  -3.6933643918974997e+00  -3.7074383475599033e+00  0.0000000000000000e+00  0.0000000000000000e+00  -9.1161175457259045e+00  -2.2517501281189709e+01  0.0000000000000000e+00  1.4404809508194496e+01  -1.7707035244580208e+01  0.0000000000000000e+00  -2.1803807141965322e+01  -2.4266725561446872e+01  -2.6133157044809820e+01  -2.7157588607422440e+01  1.1917959359144621e+01  9.6121708280061959e+00  -2.9481788196828917e+00  -8.9192428121433498e-01  -4.0383999915050799e+00  -1.7374531574361392e+00  0.0000000000000000e+00  1.0979861413607612e+01  1.0042317790265896e+01  1.5203019122435504e-01  -9.2027981525551716e+00  -1.1989940735232743e+01  -1.2896390328319274e+01  -7.6424063307025971e+00  1.3318650077807961e+01  1.1958853816391260e+01  4.9413958669671150e+00  2.2477672373473987e+00  -4.5788181519712379e-01  6.0886500029780972e+00  -1.1341357100840142e+01  5.2942295896215104e+00  6.0503263631029258e-01  -3.3271284303830906e+00  6.4803622543217232e+00  -8.0189732468991650e+00  -3.7854620501815148e+00  2.6247999111316793e+00  4.0385824491073530e+00  -7.0761701060325635e+00  1.7316031751902994e-01  -4.9219670053919344e+00  -1.4910725653608763e+01  4.2897639916799415e+00  -1.6391352171965845e+01  5.7655963328614339e+00  4.8503181209865174e+00  -4.4553942134556435e+00  -1.2711772417702980e+01  -3.5618626301164045e+00  -1.2945901279388757e+01  -1.3466481844047326e+01  -9.3560231200792163e+00  -1.0968677832886353e+01  1.2515695148129995e+01  -1.4866622996452117e+01  -7.3318242276867744e+00  -7.6880218010006711e+00  -1.7250874300135617e+01  -1.2181177083092971e+01  -1.6889590093784605e+01  -5.0384477671264625e+00  -9.0627697188050540e+00  0.0000000000000000e+00  6.9807877423109215e+00  1.1593868911385847e+01  4.0161594746968445e+00  1.9556122369772992e+00  4.1615702297496435e+00  8.1991849521178271e+00  1.3657051933664567e+01  1.5301523094176881e+00  7.2114648041124090e+00  2.8614591984462789e+00  -1.0031744417381350e+00  7.5706746802750997e+00  1.2165725624273964e+01  0.0000000000000000e+00  0.0000000000000000e+00  1.1493010021264420e+01  1.4524892184019567e+01  0.0000000000000000e+00  8.6593404941411336e+00  -1.2800503364025084e+00  -1.3666829157020053e+00  8.4740660909869767e+00  1.6514213201705150e+00  1.2489648634354733e-01  -1.1016744382953993e+00  -4.1324592366369739e+00  -3.9597978828322353e+00  -4.6937189690989261e+00  1.9764402064115021e+00  -6.8819258769954441e+00  6.7557607725916675e+00  -7.2441213301559539e+00  4.6902324284668255e+00  -4.4776181156488608e+00  7.6465917018549279e-01  -1.5467985150423756e+01  -1.0351302078608120e+01  3.6692810530620257e+00  1.5625167181105235e+00  -1.9293202155891706e+01  -1.4964216155536308e-01  8.5872638202577711e+00  -3.9976770272672120e+00  -7.3256856325259010e+00  -3.6368818423528082e+00  -1.1215303497939420e+01  -9.1076847349651313e+00  -9.0529479395159189e+00  -1.3358412219185396e+01  6.6649445483330938e+00  4.9509851931069099e-01  1.8863090030516109e-02  9.5719203914831787e+00  -6.4190190191519960e+00  -1.4256455071507366e+00  -1.2798284556347592e+00  6.9631620385760522e+00  3.5061147024505961e+00  -1.4707955554334815e+00  9.8773169428693937e+00  -9.6867439293585971e+00  8.7623385158684677e+00  -1.5665226807609997e+01  -7.5472442843565668e+00  -1.8614654919743415e+01  -3.3035425583602533e+00  2.8240138067666454e-02  -1.4122393972141310e+01  2.1999891964816527e+00  9.5138258220688172e+00  -3.9269649107144211e+00  -7.5420470436929419e+00  -4.9211653111146827e+00  -8.3193632692310207e+00  -4.4397704978806534e+00  8.7975070790607166e+00  -3.9000617290792174e+00  -1.6225060103375646e+00  -5.8744945037882772e+00  7.7384135415472288e+00  6.5038027220881283e+00  -1.9706176390524988e+01  -1.5991451562016444e+01  -1.3485970789667522e+01  2.0300853911926562e+00  2.5713078048078870e+00  -1.2173833506956447e+01  6.7080385555974225e+00  6.3710184316962124e+00  7.3227451505281058e+00  -9.6131701823543991e-01  -1.5754156068545532e+01  -1.1184169402462404e+01  -1.1569055997570123e+01  3.2061751005363850e+00  6.3109930065593589e-01  3.1029124258215810e+00  -1.8766011905342186e+01  -2.5691038957305956e+00  -5.4588634473940267e-01  -6.5899882145200284e+00  2.6895297356008996e+00  1.2278498004290883e+01  -1.3579034978616987e+01  -3.2656083387648143e+00  4.9024653673220664e+00  -1.5021621376825886e+01  1.1810285360439428e+01  7.3990924543720400e+00  0.0000000000000000e+00  2.7341662739803025e+00  0.0000000000000000e+00  1.3435075402829852e+01  4.6046880136694455e+00  8.7014172392554432e+00  3.5342102773259847e+00  -1.0777146332690485e+01  -4.2247271787494522e+00  4.6525015966088974e+00  -1.2060643489589815e+01  -2.9884362604186818e+00  1.3498596915354473e+00  -7.5916611395249189e-01  -6.4251781857461232e+00  -1.7031535357397907e+01  2.4808228965157233e+00  -1.9350204831503479e+01  -2.1161448001941952e+00  6.5168711080489512e+00  -5.7959352896792264e+00  -1.6595749772363661e+01  -1.9602491254898599e+01  0.0000000000000000e+00  2.6221165243828422e+00  1.7721366928922540e+00  -9.5876322044342377e+00  4.6299177714797377e+00  1.0708724365750257e+01  9.5185089844967230e+00  -1.6107091878652838e+01  -1.1203142269713469e+01  -1.3138453978269283e+01  4.3384697873252849e+00  -1.7710082976853293e+01  -1.2449128826002447e+01  -1.8976810650823570e+01  -1.4995167821438066e+01  -1.5532450211844536e+01  -1.1541416926483960e+01  -1.0216723509896456e+01  2.4630294946744145e+00  4.3189827733880977e+00  -6.5063972945466446e+00  -2.7951639777432624e+00  -2.1130267064123065e+00  -2.8920564401888651e+00  -1.0529876410001791e+01  -5.9312610479085892e+00  -1.5160188427518323e+01  -9.0180110367758779e+00  -9.0425953324656518e+00  -5.5358339024304239e+00  1.0137738663522367e+01  -5.0381615987417270e+00  -4.3420663967084678e+00  -1.0208379508598160e+01  4.7206804796247512e+00  -1.3680073962157090e+01  -9.3056484712055969e+00  1.4293529249199166e+00  -6.0703379224836480e+00  -2.8832492239001839e+00  -8.4260655808416569e+00  -5.6523851240196556e+00  -2.1563763440636010e+00  6.9550325291442885e+00  -5.5457124650675771e-01  -2.0771086769606035e+00  -5.0390734435301943e-01  -5.9496866275312321e+00  3.6262578599136712e+00  5.8538059538001743e+00  -6.2422759400877359e+00  -2.1736517611019837e+00  1.2969318529175415e+00  -1.4420882479974397e+01  -5.8413519649782170e-02  6.5620434196729818e+00  6.1678930024479239e+00  1.0167290674993595e+01  0.0000000000000000e+00  -6.6849417252761656e+00  -1.0011724191938258e+01  4.2392249223176579e+00  -6.9838483676099612e+00  -2.9384894659539387e+00  -7.1133649552479099e+00  1.0540323122117828e+01  -8.9999471071591337e+00  1.0299076929756456e+01  1.3944725112854854e+01  1.1319067397559330e+01  4.5784065173799373e+00  -4.8606947249635164e+00  1.0754074767947577e+01  1.6385486199385146e+00  -1.4431915200053069e+01  -2.9071492342810559e-02  -1.7572575636292935e+00  5.0637088727942086e+00  6.6174173435114723e+00  1.9161471952698375e+00  -3.3165910411805983e+00  -9.0757953542610370e-01  1.6683745504825942e-01  8.1261044865385870e+00  -1.4349906406487516e+01  5.4748090666661255e+00  9.0094574141025117e+00  4.6428193016246357e+00  4.8173971177529573e+00  8.9836992784319722e+00  -1.6175607983537788e+00  -3.3990126225278843e+00  3.5333580759750158e+00  -6.7960964660920160e+00  -6.5945077565271726e+00  8.9313747658701192e+00  1.0529261789805814e+01  1.2536479157779297e+01  0.0000000000000000e+00  0.0000000000000000e+00  0.0000000000000000e+00  1.4780132338280650e+01  1.1434313188373967e+01  9.0409913140987239e+00  1.3624425019947477e+01  0.0000000000000000e+00  1.1358010244077500e+01  1.2045963450241494e+01  -1.6537730307268735e+01  -9.9353154162584079e-01  -2.5563894228191653e+00  1.1024057277962266e+01  7.1831993981261686e+00  -1.4564653003068495e+00  7.0914563552966969e-01  -2.9254737853543524e+00  8.9645821754535018e-02  3.0111160939139953e-01  -1.1182048276082789e+01  -9.0805708875634767e+00  -1.7236494520215452e+01  4.5861095485343428e-01  -3.2903707981276034e+00  -2.6874892483826232e+00  -1.0222299653232745e+00  -3.7087986055289734e+00  -1.7553100787914264e+01  2.0161561797481338e+00  5.6494647109344920e-01  -8.1070092596319814e+00  -6.3510866111103752e+00  -5.8675346291764345e+00  -1.4612065995591792e+00  -1.8079308594726573e+01  3.2401936143145371e-01  -8.9117621680329222e+00  -1.1801820002994766e+01  -2.3323345783869662e+00  3.7517138521789781e+00  9.8018928778512493e-01  3.9007719411417230e+00  -1.3382443745124560e+01  -1.0098256288761577e+01  -1.6341238115052545e-01  -1.9368897009088933e+01  1.3955278051880717e+00  -2.0827242722083909e+01  1.4269285203930595e+00  1.9446042394595646e+00  -5.8527159000897324e+00  -2.0767968222220741e+01  -1.9126216850034581e+00  2.4395831951628155e+00  -6.8135894995451594e+00  7.1847647075625609e+00  -1.9068578399859180e+00  -1.5592623072689593e+01  1.4478679551827036e+00  2.7588533223594980e+00  2.5185752291485093e+00  6.7612346349346133e+00  6.1198174087358952e+00  4.6705515874684380e+00  -1.1179753783675908e+01  -7.1856774482546779e+00  6.9976716622275070e+00  -5.4758942733018836e+00  -1.0742171007774779e-02  -1.0060000978418199e+01  -1.6221452921243987e+01  -1.1272957070700299e+01  -1.5657893438842205e+01  -1.9773331424775748e+01  -1.3870881915605635e+01  -7.7875217201445412e+00  8.5014440986007926e+00  -1.9210934624014968e+01  1.9543709012658714e+00  -1.7927539388814086e+01  1.0501875862565491e+01  -1.3368117638025556e+01  -2.0979994195726658e+01  -1.7513003159085560e+01  1.0441321687259256e+01  6.4838361476215667e+00  -1.2180712623638565e+01  -1.4315350605799546e+01  -4.1654166536253365e+00  -5.8064199040573676e+00  -1.3634647988649405e+01  7.8432085483110177e+00  -8.8030159091152136e+00  -8.0373386425205311e+00  1.1073524219911485e+01  -2.0271910893554196e+01  -1.8672598549787831e+00  6.4787648488981944e+00  -1.3649591009735911e+01  8.7759799436623869e+00  -1.1423044943513259e+01  -4.9714498248851120e+00  8.1265382361907772e+00  8.3259816357860270e+00  -1.4194996285554907e+01  4.6991642511409948e+00  -2.9050223572626783e+00  8.9593448250956054e-01  -3.6208012983897020e+00  2.0378495724039194e+00  -9.9522452838041664e-01  -1.2984728238509604e+01  -1.0934175165103694e+01  -9.3215935877562721e+00  -4.8375725561893335e+00  1.2498131500675862e+00  -4.9928617233561718e+00  -1.0983123007355372e+01  -9.2616132770502997e+00  -1.1950596122386863e+00  -1.2072383431507070e+01  6.5256630747894595e-01  -1.5398720612255875e+01  -1.1367719725725372e+01  5.9283939958145275e+00  4.0128783507573411e+00  5.7410059749508102e-01  -5.3359918432392535e+00  -1.6906428939961902e+01  -2.7593317610653965e+00  -7.6731276693244554e+00  -7.7826213801281199e+00  -5.4545093077480598e+00  -3.4350407981726936e+00  -1.0880927754996392e+01  -6.4099038368188910e-01  -5.5871800536141327e+00  6.6876270332399494e+00  8.9917630609755701e+00  4.7395573022221011e+00  -1.6759584939062023e+01  -2.7065692153138414e+00  -1.1559442812206155e+01  1.1129806698071640e+01  -3.0622303411469418e+00  4.5507192496503945e+00  -7.7251876761035454e-01  -1.0567335489657486e+00  -1.4170790538216773e+00  -2.3877918866099823e+00  -1.9353230835662718e+01  1.1625737931350287e+01  7.7948129034854228e+00  8.4012678261430072e+00  8.9350043019123593e+00  -4.5171546323268821e+00  -4.2125493163948308e-01  -1.6843397359449874e+01  -1.7929548488632562e+01  -1.3113133024127423e+01  3.7243305008030385e-03  2.4269387848472519e+00  -3.9520758598222541e+00  -7.2705155267983415e+00  -1.0010036608110530e+01  -4.3701911607841897e+00  -3.0319100786910433e+00  1.1758482242232779e+01  8.7808231125774250e-01  3.1104376813975159e+00  -8.5974695855778531e+00  1.0521696888302740e+01  7.2969734231371453e-01  6.7239654386437033e+00  -1.9901260924307358e+01  8.6411279659535314e+00  7.0703940485532106e+00  8.6909181836761729e+00  -1.3264243785894653e+01  -5.0644092995490277e+00  -1.2117248261430889e+00  -1.6422915044138813e+00  -4.3096320716952761e+00  -9.5913437106104400e+00  1.8129602521353165e+00  -7.8981123547446987e+00  -9.2616140475402471e+00  -7.5246558145513687e+00  -5.9760927790376375e+00  9.7769702846241273e+00  7.6742681484955808e+00  8.2744519676178854e+00  1.1192124374153714e+01  8.9856585467760421e+00  5.3198397392352774e+00  -9.5979937922909322e+00  -9.7827259518378682e+00  -2.5834058486639160e+00  7.2479924533774724e+00  4.8158246844418127e+00  -7.2890671481596145e+00  -2.1478268030545433e+01  -7.6509372545387464e+00  -7.8801460685676243e+00  3.1026368933213004e+00  -1.6750106300274910e+00  8.2464385880844322e+00  -8.3362736917240188e+00  -1.3459186784228645e+01  2.4762788638857116e+00  -1.0335960381102932e+01  1.9515833802714613e-01  -1.4966501613839750e-01  -4.1645351656200308e-01  2.2613993302533304e+00  -1.3020215309116441e+01  -1.3712898972816889e+01  -3.8818060714587990e+00  -3.4077931323917103e+00  -5.5645286824717237e+00  -4.8250879953061769e+00  5.5202592405076532e+00  -1.0367018846802512e+01  -2.7136982523322517e-01  2.7379227225165268e+00  3.9313926008087066e+00  5.6571482792740042e+00  8.8818405756645404e+00  -1.5134431886615015e+01  -1.2359703518768550e+01  -9.3296237098768380e+00  5.7119342762917498e+00  6.3493149732480161e+00  3.1062638798379734e+00  -2.9436420123721669e+00  6.2819541411395341e-01  4.2553828630900208e+00  -1.4684572412458474e+01  -5.7541446807929608e+00  -4.2936490364451991e+00  7.0294098386739892e+00  -1.3204517797161965e+00  -8.3871166747126882e+00  -6.6611251463255670e+00  -4.5504041437551379e+00  -1.5295897854476623e+01  3.4003493996757039e+00  1.4168471440003412e+00  3.5821744486985359e+00  -2.7145054501124690e+00  -1.1199464553494822e+00  -2.0175955416346203e+00  -5.6879642089360498e+00  2.7838424709389606e+00  -1.1983645160857435e+01  -4.0757284712308248e+00  -1.5735329043783692e+00  4.8813903747890217e+00  8.2879349022931894e+00  4.9110692686280037e+00  -5.0011053462012995e+00  -8.5567100593701557e+00  2.7262746156774527e+00  -1.4934692087886862e+01  -9.7634684134987513e+00  9.1007822663447051e+00  5.0612368735525326e-01  -1.8801288523749317e+01  -1.2800216088165660e+01  -1.1647446698082485e+01  7.9025445980301550e+00  2.4377639207646409e+00  -1.4092062036156769e+01  -1.2346755950450905e+01  -1.4586452770030427e+01  -3.6805431152752734e+00  -1.5808368249217169e+01  -1.7743309803733627e+01  7.8272303663600358e+00  6.3173732907660787e+00  -5.7245327740614282e+00  -1.1900346590904462e+01  1.2383364378346617e+01  -2.4961264770183180e+00  3.5002184212681775e+00  1.1767002950287946e+01  -1.2631313008685048e+01  -1.5401170911757703e+01  -1.2839983415287481e+00  1.0029258882637473e+01  1.1642222820618713e+01  1.3101054487655096e+01  -1.2803009397872550e+01  1.1167361215621215e+01  -2.2493094687316253e+00  -7.5076763841614519e-02  3.6663732458445536e-01  -1.8212629872518686e+00  4.7358528940355560e-01  -1.1534857826954592e+01  -1.7522597689936784e+01  6.3191209935888173e+00  -1.5106634074643164e+01  1.3639388126316692e+00  -8.9905064021860159e+00  -1.3324183196207648e+00  6.4837844739820385e+00  5.2823713734282851e+00  2.3674380556494170e+00  5.7634518803947643e-01  7.4649332534215418e+00  -6.2604490067824052e+00  -2.0302115909285732e+01  9.6357481650223953e+00  -1.5160028531670873e+00  1.0090468095659743e+01  7.6152514656326415e+00  -1.6569620559572424e+01  6.4592113497578085e-01  -1.1348785523946014e+00  -9.0647940666301785e-01  1.5587496636178195e+00  -7.9992337126551432e+00  2.9936231485974751e+00  4.0719258086127272e+00  -1.6677480735950532e+01  -6.1970044811476344e+00  -3.5164878268842572e+00  -3.3106971890551127e+00  -1.9018832897152911e+00  -2.1966213287963757e+01  -1.0420492409479902e+01  -1.2191036970158054e+01  -1.8082158329408635e+01  1.0394436055618625e+00  3.0860964621211245e-01  -1.1252985586446913e+01  1.5293139861878351e+00  4.0922114924898425e+00  4.8415638341766352e+00  9.2790728663330384e+00  -1.0313978238770169e+01  -6.2104054482372861e+00  1.5631730190467139e+00  5.8966117478267854e+00  3.3716665370503476e+00  4.6188588903763392e+00  1.9779167364628742e+00  -5.6842770005010532e+00  4.8668795205677862e+00  -1.1642935996758329e+01  -1.3186700634923520e+01  1.6462709590610158e+00  -2.2971940546222980e+00  -1.1129491970946956e+01  -2.0020751051034910e+01  7.9938957868367175e-02  -1.7378706698346239e+01  -1.9346755054826961e+01  -1.7531684214972266e+01  5.9431018289622459e+00  3.8463891442822655e+00  -5.4918938091596141e+00  3.7085711793712890e+00  3.0410886246257678e+00  3.0871068982293337e-01  8.7145467756235184e-01  3.3380548947718176e+00  -9.2204747488384555e+00  -6.7901232870252910e+00  -1.6255942790165665e+01  -1.4327098514012603e+01  -2.0823147534734520e+01  6.2811260611562494e+00  6.0527674392178032e-01  5.0284871888898390e+00  -8.6037482051054113e+00  -4.1685602776739794e-01  -7.6977384542831766e+00  -1.9416605573597156e+01  -1.8237105915339910e+01  -2.1183110507942271e+01  -4.8310620784871290e+00  -1.7133596290681992e+00  -1.1419067688048246e+01  3.8692111856719875e+00  -1.3475071076515503e+01  7.2464361100681609e+00  8.6372136305295886e+00  -1.5290080861911560e+01  -1.1781293936775823e+01  4.0458360590992987e-01  -7.3739098306525657e+00  8.8423455487938760e+00  1.2778169237661048e+00  5.9414793035515534e-01  -2.9023153108860402e+00  -2.8037166738942791e+00  -1.1051564179173070e+01  -2.0273467871418859e+01  8.1444411977296198e+00  7.4729697935955635e+00  6.1675956254388398e+00  -8.1127903525573597e-01  8.0989592673538784e+00  9.2430066721816928e+00  7.3601135794561499e+00  -8.2463248279867774e+00  5.3242304151936126e-01  2.1774690197477238e+00  -3.6538149316675161e+00  -1.2457467623614248e+01  9.5918423721506407e+00  8.0580777551887431e-02  -2.1838316290457268e+01  -7.9665614818265951e+00  -1.6306957836953185e+01  2.1884348333711348e+00  2.9016543312004917e+00  -1.6055464155166117e+01  -1.0365379394149686e+01  -1.8392864925027010e+00  -1.0375363191691216e+01  -8.7337334007106371e+00  -1.1207497711205312e+01  -4.8679113094996111e+00  4.7544295580996598e+00  -2.0690564249374223e+01  -1.5557878960010700e+00  -4.94