<?xml version="1.0"?>
<VTKFile type="UnstructuredGrid"  version="0.1"  >
<UnstructuredGrid>
<Piece  NumberOfPoints="4835" NumberOfCells="9296">
<Points>
<DataArray  type="Float64"  NumberOfComponents="3"  format="ascii">0 1.5 0  -0 0.1307014797437256 0  0.01134725726173103 0.1483581566929452 0  0.04283342385313163 0.181379897845022 0  0.08000000000000007 0.2078460969082653 0  0.1215036888038188 0.2268001964915204 0  0.1658444388144116 0.2375571460514239 0  0.2114196597976982 0.2397281614039219 0  0.2565821445222626 0.23323477639765 0  0.2996996031204527 0.2183116788850844 0  0.3392136582970876 0.1954982284920806 0  0.3736961691452169 0.1656189627557069 0  0.4019008478794835 0.1297537961893434 0  0.4059948616314525 0.1218125174167552 0  0.4254856317806581 0.1498156710261111 0  0.4592156240140376 0.1818784194956707 0  0.498709345141744 0.2064950441012706 0  0.5423499175804942 0.222657737339227 0  0.588350691167096 0.2297047966493422 0  0.6348283888260526 0.2273477145954656 0  0.6798802081543086 0.2156829903938285 0  0.7216617223752013 0.1951881792237927 0  0.7584623913874079 0.1667023410626976 0  0.7879811633353602 0.1323170874919288 0  0.8152477706948351 0.1684239109116393 0  0.849341340905186 0.1995043068200599 0  0.8885654110558655 0.2237908228387656 0  0.9315842524819793 0.2404564107932048 0  0.9769329101341745 0.2489335440737586 0  1.023067089865825 0.2489335440737586 0  1.068415747518021 0.2404564107932048 0  1.111434588944135 0.2237908228387656 0  1.150658659094814 0.1995043068200599 0  1.184752229305165 0.1684239109116393 0  1.212554283932403 0.1316080407193389 0  1.233118057351089 0.09031041654678823 0  1.245743274920975 0.04593737945414259 0  1.25 0 0  1.36108673858246 0 0  1.36108673858246 0.02281345039300389 0  1.369721686332521 0.06761581364194322 0  1.386679492322819 0.1099743652145785 0  1.411347257261731 0.1483581566929452 0  1.442833423853132 0.181379897845022 0  1.48 0.2078460969082653 0  1.521503688803819 0.2268001964915204 0  1.565844438814412 0.2375571460514239 0  1.611419659797698 0.2397281614039219 0  1.656582144522263 0.23323477639765 0  1.699699603120453 0.2183116788850844 0  1.739213658297088 0.1954982284920806 0  1.765497292517293 0.1727233297951148 0  1.79 0.1905255888325765 0  1.832016261237511 0.2092324335849338 0  1.877003738081116 0.2187948169810202 0  1.922996261918884 0.2187948169810201 0  1.967983738762488 0.2092324335849338 0  2.01 0.1905255888325765 0  2.047208733398949 0.1634918616050267 0  2.077983738762488 0.1293127555043441 0  2.087980221556173 0.1119983394086949 0  2.111347257261731 0.1483581566929452 0  2.142833423853131 0.181379897845022 0  2.18 0.2078460969082653 0  2.221503688803819 0.2268001964915204 0  2.265844438814411 0.2375571460514239 0  2.311419659797698 0.2397281614039219 0  2.356582144522263 0.23323477639765 0  2.399699603120453 0.2183116788850844 0  2.439213658297088 0.1954982284920806 0  2.457172785224357 0.179936556425434 0  2.459215624014038 0.1818784194956707 0  2.498709345141744 0.2064950441012706 0  2.542349917580494 0.222657737339227 0  2.588350691167096 0.2297047966493422 0  2.634828388826053 0.2273477145954656 0  2.679880208154309 0.2156829903938285 0  2.721661722375202 0.1951881792237927 0  2.758462391387408 0.1667023410626976 0  2.788775591477674 0.1313916894718022 0  2.811360296672653 0.09070184667606328 0  2.825291886488074 0.04629865962039181 0  2.83 0 0  3 0 0  3 1.5 0  0 0.8023345134541607 0  0.4157402467060553 0.1358140942214332 0  3 0.75 0  1.5 1.5 0  0 0.4665179965989431 0  3 0.375 0  0 0.2986097381713344 0  0 0.21465560895753 0  0 0.1726785443506278 0  0 0.1516900120471767 0  2.25 1.5 0  0.75 1.5 0  1.169989811679434 0.9093651732355621 0  1.875 0.9142758100523694 0  0.5779365036100435 0.9330077223331824 0  2.43246936225428 0.7976868957014953 0  3 1.125 0  2.625 1.5 0  0.375 1.5 0  0 1.15116725672708 0  1.449253057879235 0.6213873587688492 0  0.7697361971202799 0.5943793911944208 0  0.3630076616442724 0.6080350564914153 0  2.069570984533324 0.5812833454367354 0  1.875 1.5 0  1.125 1.5 0  2.4375 1.173854331507092 0  0.8831005780031504 1.150004411874495 0  1.52207987625039 0.9714054497350916 0  2.0625 1.207137905026185 0  1.107793318688589 0.5766433232347881 0  1.3125 1.2274095306559 0  2.729985961523573 0.9375 0  2.711750443384031 0.5625 0  1.6875 1.243073622519403 0  1.760894209596057 0.6242614373612321 0  0.2643049832376852 0.9767508850906206 0  0.4566194854768236 1.209399638766609 0  2.728217267602858 1.228217267602858 0  2.374499195658668 0.518153287180279 0  2.169650674143702 0.9320836008992801 0  0.8550719231757007 0.8663457099410541 0  1.303567858855371 0.4078893824383345 0  0.2133194436665546 1.297827371069245 0  0.5308017499037517 0.4517023193912283 0  1.083077097725883 1.270382833575872 0  0.6830238102386342 1.274223132985906 0  2.250983943328481 0.6895458766515071 0  1.81089184968521 0.4192208869708923 0  1.679274712803154 0.8238291020339636 0  1.5785148524717 0.4510287526682343 0  0 0.6344262550265519 0  0.2138866804674432 0.765685327335986 0  0.5683532856219899 0.6602211278972628 0  0.9375 1.5 0  0.93201471049342 0.4568525359126817 0  1.262687644113192 0.7198627504483751 0  0.4154000952342595 0.8069446327163143 0  0.2139559556345817 0.4540330649264536 0  2.06977986811652 0.3813318272583126 0  0.7200651071201811 0.4061566188086219 0  1.932157822851692 0.7243325602448901 0  0.9441947922338874 0.689010158618046 0  3 1.3125 0  2.8125 1.5 0  0.5625 1.5 0  1.865575888969794 1.126762336039809 0  1.691368628814911 1.054521333692312 0  2.243682835689564 1.11932177110543 0  2.294933652681559 1.30886281903233 0  2.4375 1.5 0  2.385653526545621 0.9864303388879195 0  2.560603055863368 1.320052196970997 0  2.605098352881707 1.08210421072607 0  2.797310903081369 0.7462827406561878 0  1.497248537655819 1.30111187331848 0  1.6875 1.5 0  3 0.5625 0  3 0.9375 0  1.3125 1.5 0  2.0625 1.5 0  3 0.1875 0  0.1875 1.5 0  0.9978323986844071 0.9954535003819682 0  0.7455388243606953 1.020382929522352 0  1.904625246064701 1.312514164033404 0  1.15622562020362 1.097022204090454 0  1.332774827327096 1.015638362851981 0  2.617489052932561 0.7904306825848915 0  2.798834931624827 0.3810601956207291 0  2.518702939674024 0.6340258449062608 0  1.42862153170688 0.8082655083169574 0  2.016051725629557 1.02698392558818 0  2.557580898838836 0.4303899543284488 0  0.9143579924460792 1.324371521638632 0  0.6907201107072946 0.792483910827579 0  0 1.32558362836354 0  0 0.9767508850906206 0  0.6046140448732628 1.120294499938289 0  1.129353874055204 0.4037183319394277 0  2.240578803971554 0.4086758810341738 0  1.544887400155686 1.138911442832316 0  2.828734594747712 1.083464790593587 0  0.401358428169992 0.3487630281226344 0  0.1737226743516005 1.126953194380642 0  1.219293394173851 1.36370476532795 0  2.095593203128485 0.7438044944874065 0  1.099947866649755 0.7404984974094087 0  0.4225987016856009 0.9654760294046846 0  1.265404984472296 0.5615537191035901 0  1.908099381276504 0.55154028811489 0  1.605233217264331 0.6055204891939014 0  0.2070403235706232 0.6098576665994301 0  0.46875 1.369568887475175 0  2.529999076220762 0.9220559311443081 0  0.3296306516835505 1.118561581461605 0  2.136891098712708 1.353568952513092 0  0.1250262355603041 0.8895426992723907 0  2.286468869522623 0.8363516131379349 0  2.03024950667879 0.8782110935537075 0  2.71875 1.380113023166798 0  2.851157149000174 1.312122703709591 0  2.855875221692015 0.6072101925796368 0  1.766081959310164 1.371536811259701 0  2.417227117459742 0.3724437385102629 0  1.365276810157265 1.363519047380362 0  1.451310499971155 0.3640091006357036 0  2.211012611580202 0.5503989260541815 0  1.306789156675977 0.2570819477057019 0  2.872418607762505 0.256220469598872 0  2.896902016958361 0.84375 0  0.6487095286926469 0.5256523827174592 0  1.021477811485347 1.13286821063065 0  1.622350554793597 1.371881362989231 0  1.297557547403682 0.854343314165958 0  0.5529398034156436 0.7974238691464364 0  1.000783388185185 0.848708117631217 0  0.8152141294141361 0.735251676415229 0  2.383386472338196 0.654760318649699 0  1.031024064601143 1.39833771698851 0  1.812756223744312 0.7919737740986065 0  2.902150447032281 0.46875 0  1.558478314279628 0.7430881247578319 0  2.428095049619715 1.306700780290589 0  0.3309906154406318 1.369459454266083 0  0.117457385934373 0.361895434578648 0  0.4016309285334721 0.4812757168525422 0  1.933925005895449 0.3564723397117748 0  0.7479761182598068 1.155601287121883 0  0.09711831342126455 1.23837544254531 0  1.384025258268523 0.5094422387329146 0  2.188092881729461 1.235445092789212 0  0.116614462422195 1.388212202394539 0  0.5993432477835932 1.374610260003488 0  0.8731519049868882 1.022757560732678 0  0.1109021857268646 0.5275252102504697 0  1.703820060431276 0.5017282682884084 0  0.1118224159219883 0.6921053365242938 0  0.3267069786561488 1.244030051070764 0  2.878127312164905 0.9679608000003684 0  1.408346090782441 1.129729637108486 0  0.8047358880839842 0.3153623688883521 0  2.6405066654848 0.6664933064830099 0  0.4805702216488833 1.081724858267193 0  2.668084598222495 0.3562155878484895 0  2.138121375887776 1.052804865904559 0  1.96875 1.5 0  0.4891907154726056 0.5668366043293971 0  0.1473863332166031 1.0086557402922 0  2.558860649578938 1.196592162044302 0  1.717555244640741 0.3396535732296396 0  0.84375 1.5 0  0.7839942032523698 1.367093097528149 0  3 1.40625 0  2.484124862262918 1.060073596740424 0  3 1.21875 0  2.34375 1.5 0  0.8196209764267471 1.251369088398821 0  2.023202270335131 1.319214170177879 0  0.5721208504581607 1.233781127425821 0  1.984735816620384 0.462442873488178 0  0.6955333931194808 0.9118686683832042 0  1.19123464962554 1.213906677421382 0  0.8929803638185398 0.5752987850534633 0  1.566736823664244 0.8614646887466211 0  1.808684073906441 1.017786844668201 0  1.719105195888173 0.9374041347540488 0  1.671476674178274 0.70476362875428 0  1.218260709491531 0.330629071498573 0  2.839021519587611 1.19788439058923 0  0.5170070740021471 0.3361933937254621 0  1.393527188254162 0.91788143976
[...]
<PointData  Scalars="f_66"> 
<DataArray  type="Float64"  Name="f_66"  format="ascii">1.2535634489872963e+01  -2.5738160450113526e+01  -2.4816794466647018e+01  -2.3042160632673220e+01  -2.1576905859588852e+01  -1.9825136762121687e+01  -1.8480966798296311e+01  -2.0102157623707932e+01  -2.1092082888387118e+01  -2.1566692908541956e+01  -2.1696807179474369e+01  -2.0319361642916004e+01  -1.9866485337017238e+01  -2.0024668524889591e+01  -1.9557427088140059e+01  -1.8830426452808855e+01  -1.8761053705610205e+01  -2.0350861517251207e+01  -2.0543672160643240e+01  -2.0556649753023667e+01  -1.9179705924744788e+01  -1.7830416556535781e+01  -1.8007312524241538e+01  -1.8181370418688601e+01  -1.8101534542348677e+01  -1.9408335441785987e+01  -1.9621846409718394e+01  -1.8789474261100679e+01  -1.7743287712552782e+01  -1.5825358628686020e+01  -1.5833386344538418e+01  -1.7735742454590646e+01  -1.8413975387776766e+01  -1.9958532269630648e+01  -2.0832974499648483e+01  -2.0439785550607301e+01  -1.9624030863747347e+01  -2.0052667914107698e+01  -1.8708779483384667e+01  -1.8684582180014306e+01  -1.8545186200415042e+01  -1.7995611072790371e+01  -1.7418491476474799e+01  -1.7924696246897941e+01  -1.8392590957096498e+01  -1.7611488822646386e+01  -1.6682648754299105e+01  -1.4729632923251808e+01  -1.4122379053310885e+01  -1.5670752436157173e+01  -1.6939347352860612e+01  -1.7922471170675539e+01  -1.7199696515434120e+01  -1.6307602015753446e+01  -1.5274227926758345e+01  -1.3041151388259381e+01  -1.3221223051031799e+01  -1.5133981848791917e+01  -1.6374658919623972e+01  -1.7820087718060531e+01  -1.8596656219251450e+01  -1.6788952273993019e+01  -1.5069003838597142e+01  -1.3727566800368910e+01  -1.1913624897274170e+01  -1.0678523371245044e+01  -1.1508780042291402e+01  -1.2050149513701246e+01  -1.2492871958602564e+01  -1.1312124282668387e+01  -1.1557857113458013e+01  -1.1548182450217684e+01  -1.0381053653227859e+01  -8.9360291209164409e+00  -8.7332833544781003e+00  -9.1139290788594316e+00  -9.5644330567144031e+00  -9.3825396419636995e+00  -7.2364112043915707e+00  -5.2866671471653808e+00  -4.3622387062444110e+00  -4.1178592455169580e+00  -4.1249605819392192e+00  0.0000000000000000e+00  0.0000000000000000e+00  -8.2264220546317919e+00  -1.9846656460997504e+01  0.0000000000000000e+00  1.6956525530635883e+01  -1.6663670919179047e+01  0.0000000000000000e+00  -2.0294295019162092e+01  -2.1804442925695469e+01  -2.3662425180099120e+01  -2.4705169642208265e+01  1.4309028510565161e+01  1.1850041536723605e+01  -2.0682446101499488e+00  -2.0035780738831270e-02  -3.1699010243343912e+00  -1.0901204245603813e+00  0.0000000000000000e+00  1.2906476143414375e+01  1.1941846765154311e+01  1.0606294101126437e+00  -8.3137003942013195e+00  -1.1091253986417046e+01  -1.1944471465827815e+01  -6.7804419569530427e+00  1.5361727952632961e+01  1.4028701761352409e+01  5.7740091257447341e+00  3.1209049804744398e+00  4.3665690545605662e-01  6.9864818682220893e+00  -1.0458546007029451e+01  6.2207457410189910e+00  1.0558996953952255e+00  -3.2726024570123786e+00  7.3594893910264991e+00  -7.1430797122816685e+00  -2.9163586443144407e+00  3.4967032889299943e+00  4.6925977006544368e+00  -6.3537027673573760e+00  9.8518961007142913e-01  -4.0567603714029890e+00  -1.3775295146031368e+01  5.1174543216482116e+00  -1.5491883421705655e+01  6.6439939521907370e+00  5.7906882168692162e+00  -3.6130050883100076e+00  -1.1805337174567077e+01  -2.6746032770643087e+00  -1.2089685089767469e+01  -1.2535327320402839e+01  -8.4786762082510876e+00  -1.0092682441847431e+01  1.4741926975094270e+01  -1.3975634084013279e+01  -6.3778658357292253e+00  -6.7725989160268494e+00  -1.6354066826542621e+01  -1.1254218124558705e+01  -1.5924124790908275e+01  -4.1652626024558135e+00  -8.1480433203951268e+00  0.0000000000000000e+00  8.6031997843599921e+00  1.3899226061909166e+01  4.9144728900821129e+00  2.8307374090461481e+00  5.0751944637879935e+00  9.2009894975378508e+00  1.6440712880497177e+01  2.4021673237601981e+00  8.2348347557952266e+00  3.8991514289473543e+00  -9.1485596985406425e-01  8.5253526111671913e+00  1.4222775741987968e+01  0.0000000000000000e+00  0.0000000000000000e+00  1.3690665152649835e+01  1.6886720237308257e+01  0.0000000000000000e+00  1.0644717478730794e+01  -3.5403258312797636e-01  -4.7828124234857733e-01  9.4493569924944971e+00  2.5093153891703679e+00  1.0318970170683215e+00  -2.4163314161403138e-01  -4.6129230090660682e+00  -3.3809400990128782e+00  -3.8240927787331178e+00  2.8819856200147127e+00  -6.2503564120469060e+00  7.7572867294389862e+00  -6.3261788985910776e+00  5.6555253566901671e+00  -3.5942995719216411e+00  1.6515211642784420e+00  -1.4596569884671483e+01  -9.5333575186038235e+00  4.5813068450216505e+00  1.8885256334874059e+00  -1.8218286588514772e+01  7.0504309397713349e-01  9.7269094865072905e+00  -3.1545767337637449e+00  -6.4425832070567859e+00  -2.7356019214399625e+00  -1.0207573587003758e+01  -8.2481695824518422e+00  -8.1647668824381405e+00  -1.2472351725265398e+01  7.7231195173546467e+00  1.2323023694632294e+00  9.2004485243770373e-01  1.0690725269826510e+01  -5.5286556307541703e+00  -5.0474071206339777e-01  -3.7565012366367612e-01  8.3314565992346985e+00  3.8066333903952096e+00  -1.3095560537438631e+00  1.1006468815594962e+01  -8.9751697084023441e+00  9.8226185701851225e+00  -1.4604232117584576e+01  -6.7738088080419603e+00  -1.7326122985288261e+01  -4.0231212345159806e+00  5.3520385277294413e-01  -1.3204454665330449e+01  3.1136163328528350e+00  1.0642255730985637e+01  -2.9929824062206638e+00  -6.6796078655796238e+00  -3.9957283229591423e+00  -7.4488837369682424e+00  -3.6971757013791913e+00  1.0137108363541451e+01  -3.0330245871426076e+00  -1.6496302792373545e+00  -4.9737692063204166e+00  8.7456083083316916e+00  7.5930190450904158e+00  -1.8544746005671509e+01  -1.5010995607772179e+01  -1.2444904025216918e+01  2.9154676639098351e+00  3.4770984872558683e+00  -1.1206837508659905e+01  7.6197760485365995e+00  7.5097686046259824e+00  8.5115176083313351e+00  -9.4474843441099299e-02  -1.4795746757529608e+01  -1.0314859551949684e+01  -1.0646219046478828e+01  4.1095145540471139e+00  1.1723920657443119e+00  3.9547427750349269e+00  -1.7619783177002304e+01  -1.8863789982712522e+00  3.0674021817637503e-01  -6.4613556279505131e+00  3.5415672075329820e+00  1.4609467552854662e+01  -1.2685425024410147e+01  -2.3923471263203289e+00  5.8428598244014580e+00  -1.4049140563274721e+01  1.3935445776820099e+01  8.4053899587192618e+00  0.0000000000000000e+00  3.4601837854260773e+00  0.0000000000000000e+00  1.5620694713450014e+01  5.4458143123613434e+00  9.6265899944793230e+00  4.3964778220927219e+00  -9.8806773733430155e+00  -3.3063293993390661e+00  5.5417111448287981e+00  -1.1167203697153390e+01  -2.0832968314283917e+00  2.2261785872830990e+00  1.1539824986540155e-01  -5.5361002562240431e+00  -1.5823546434962093e+01  2.8158358067616454e+00  -1.8291874410352431e+01  -1.2449116680488983e+00  7.4242572124677304e+00  -4.8818081942186149e+00  -1.5565353284765605e+01  -1.8482573577458680e+01  0.0000000000000000e+00  3.2912687144046227e+00  2.6991350088650687e+00  -8.7854845447297070e+00  5.5690035030724108e+00  1.3066750012507372e+01  1.0744469537908349e+01  -1.5176575199084381e+01  -1.0300800088040715e+01  -1.2149697755669834e+01  5.2006732902042794e+00  -1.6547870192473006e+01  -1.1560418563012957e+01  -1.7842201794666746e+01  -1.4081732003303406e+01  -1.4575870892077496e+01  -1.0636894640773688e+01  -9.2989627390830378e+00  3.3944293797626224e+00  5.2236551247301195e+00  -5.6382546582357600e+00  -2.9850214356024121e+00  -1.3233068670318879e+00  -3.2059965909524113e+00  -9.6255950809498128e+00  -5.1588636570025583e+00  -1.3990323946998227e+01  -8.0703594888537911e+00  -8.1333191482550546e+00  -4.6325808487972422e+00  1.1458848909117769e+01  -4.7414539176946651e+00  -3.6503700825477350e+00  -9.3437973572223552e+00  5.2370767059347667e+00  -1.2673110746637587e+01  -8.5923045916697021e+00  2.3171242719324567e+00  -5.5616477077396889e+00  -1.9963084617251010e+00  -7.5157011684854709e+00  -4.7898184813029925e+00  -1.2529701869878953e+00  7.9664564761929260e+00  -1.8296875378894842e-01  -2.0309180960762383e+00  -1.2003095625027438e-01  -5.0881442667581140e+00  4.5810779590749915e+00  6.8256457936035879e+00  -6.9169054034164752e+00  -2.3649929982050830e+00  2.2952377532722776e+00  -1.3312426455648515e+01  8.4139149074541153e-01  7.4263947298113804e+00  7.0995155019800515e+00  1.1482374576411996e+01  0.0000000000000000e+00  -5.7774841186811878e+00  -9.1089954214181219e+00  5.1367948250713997e+00  -6.0933767897262996e+00  -2.0691340587584621e+00  -6.2597257802278410e+00  1.1879151402216589e+01  -8.0932991295572236e+00  1.1600378777773155e+01  1.6215823203248611e+01  1.3325662088509601e+01  5.0457990900632783e+00  -3.9858115153828382e+00  1.1984445031115420e+01  2.5089471929982508e+00  -1.3512806045001852e+01  6.7334762687919647e-01  -8.2599726063181289e-01  5.9321932212847308e+00  7.5349072465103673e+00  2.7483390544576891e+00  -2.3997177939532004e+00  -4.8821430977300712e-02  4.1353589357804726e-01  9.0653376676469719e+00  -1.3463199828325306e+01  6.5384037581639065e+00  1.0492228903474293e+01  5.5788549279701236e+00  5.6945184588896858e+00  1.0418791122746748e+01  -7.6238662207171792e-01  -2.5355010464305856e+00  4.3832191629778858e+00  -5.9174296098452768e+00  -5.6829504363505619e+00  1.0884278070532655e+01  1.2823243537079064e+01  1.4665115469579611e+01  0.0000000000000000e+00  0.0000000000000000e+00  0.0000000000000000e+00  1.7296830857021007e+01  1.4541590665723035e+01  1.1194932941386257e+01  1.6120418897826799e+01  0.0000000000000000e+00  1.3715550311938374e+01  1.4074010793869620e+01  -1.5591586714789072e+01  -3.1351222586954003e-01  -1.9767635729865989e+00  1.2377559488598310e+01  8.2308973616025707e+00  -5.6884343256902992e-01  1.6324438801458081e+00  -2.0321446022290939e+00  1.0244170702771118e+00  1.2152300599401622e+00  -1.0327819809068798e+01  -8.3097551874722075e+00  -1.6261558431794072e+01  1.3036275885633564e+00  -2.3871827770118217e+00  -1.8133924631565175e+00  -1.0261006723713789e-01  -4.1748158136868829e+00  -1.6450591051442750e+01  2.9265671829175059e+00  1.4429757698176602e+00  -7.2895549208153492e+00  -5.4746016801059776e+00  -4.9645217458105071e+00  -9.9850274619634838e-01  -1.6764892492345364e+01  1.2805286436636014e+00  -8.0117121163372591e+00  -1.0925762200610411e+01  -1.4201340299822447e+00  4.6444138521337379e+00  1.6832793556083412e+00  4.9594481130966281e+00  -1.2480058745966712e+01  -9.2162848584026626e+00  7.3337846252624417e-01  -1.8005080242145706e+01  2.1706908750653753e+00  -1.9065139775855364e+01  1.8087179963948157e+00  2.7115421406458489e+00  -4.9762857273887837e+00  -1.8811426461284448e+01  -1.0620450064603728e+00  3.3700962914833417e+00  -5.9472189186433777e+00  8.5523505159510478e+00  -1.0355656632532577e+00  -1.3744646359363594e+01  2.2798633906032046e+00  3.6806753701887360e+00  3.2130723809162380e+00  7.7389229381503073e+00  6.9537272244545179e+00  5.5226928388561127e+00  -1.0383808103922711e+01  -6.2643077092063999e+00  8.0634611495320971e+00  -4.9068715335458517e+00  8.4515626624838480e-01  -9.1242497780616265e+00  -1.5090306945677076e+01  -1.0336802024143653e+01  -1.4743399280737364e+01  -1.8647802749213607e+01  -1.2968542286458982e+01  -7.2632339689553964e+00  9.4847051081391385e+00  -1.7626354417606066e+01  2.8209699373299939e+00  -1.6927059367500757e+01  1.2205993338271025e+01  -1.2493527679324623e+01  -1.9610254719230142e+01  -1.6522972543599419e+01  1.1810045276152090e+01  7.4343086988747142e+00  -1.0986962674372574e+01  -1.3427390905860369e+01  -3.3907994331185480e+00  -4.9488086532251865e+00  -1.2705538337831269e+01  8.7954834655778011e+00  -7.9111320138832895e+00  -7.1414400971775196e+00  1.2548041086155729e+01  -1.8953164223161124e+01  -9.7417065794493796e-01  7.3720570352727863e+00  -1.2707466858317373e+01  9.9795323786525287e+00  -1.0444994829880182e+01  -5.3440959137994666e+00  9.7424339219075780e+00  9.5960709564986750e+00  -1.3184480122600691e+01  5.6042216519442620e+00  -2.0643102544649508e+00  1.7641023586365958e+00  -2.7695831055051880e+00  2.9242335809327638e+00  -1.2758494764764672e-01  -1.1917073390120020e+01  -1.0002361633856575e+01  -8.3524580442991567e+00  -3.9732730204303213e+00  1.9328821706494663e+00  -4.0902444355773389e+00  -1.0105256201855216e+01  -8.3808498794222359e+00  -3.5827867814338044e-01  -1.1162655253833874e+01  1.5557948120647316e+00  -1.4502028546187264e+01  -1.0484615416732145e+01  6.8443761472921265e+00  4.7988508879689462e+00  1.4641936946495060e+00  -4.4782885917716477e+00  -1.5598638046460440e+01  -3.6078516190902596e+00  -7.0729485910086671e+00  -6.8791998378101633e+00  -4.5577600461412668e+00  -2.5434823663573272e+00  -9.9733023687614555e+00  -4.4820490362186183e-01  -4.6775696296046680e+00  8.0822684134596123e+00  1.0455701138802205e+01  5.2556856045125784e+00  -1.5111405612630136e+01  -1.9583663444684096e+00  -1.0339893080280303e+01  1.2643741716077402e+01  -2.3890552573694048e+00  5.5016613330850896e+00  6.6177460193992746e-02  -9.6508972894776335e-01  -1.3498244490855580e+00  -2.5170206966331365e+00  -1.7403041045656114e+01  1.3123158739591830e+01  8.6872327979739854e+00  9.3855629844729513e+00  9.8823394569323728e+00  -5.0453762593040681e+00  -2.6735610184494080e-01  -1.5641995447217772e+01  -1.6946462884921065e+01  -1.2208020420852861e+01  8.5204459534519139e-01  2.7217288619672004e+00  -4.1753699504348489e+00  -6.3734753157202517e+00  -9.1166347703543966e+00  -3.4825705913768994e+00  -2.1670725309058767e+00  1.3538777707235495e+01  1.8031439361015316e+00  3.9871505968299741e+00  -7.7215175414222745e+00  1.2357142372770896e+01  9.7458651266049245e-01  7.6814049076981323e+00  -1.7909144236976037e+01  9.6899142097029038e+00  8.0155347203987652e+00  1.0357011313425513e+01  -1.2386654676741738e+01  -4.1675690131987109e+00  -3.0686023729131612e-01  -1.4704540682824909e+00  -4.7489086122474369e+00  -8.7093820627577934e+00  2.6724752345665448e+00  -7.0057506948747994e+00  -8.4974859641071081e+00  -6.7447147065847242e+00  -5.1764595753923519e+00  1.1087963282768774e+01  8.6320157563383209e+00  9.1808634759964622e+00  1.3152573831480950e+01  1.0019347707102458e+01  6.2663712450810349e+00  -8.7121525213021851e+00  -8.8879274238049391e+00  -1.7040378314182576e+00  8.2214085978758540e+00  5.6693086476413157e+00  -6.3755356601801756e+00  -2.0109461994044540e+01  -7.5100890350155103e+00  -7.0011261224504384e+00  3.5551455405186232e+00  -1.3774200294352956e+00  9.9125899788890877e+00  -7.4381632261388457e+00  -1.2543993376533251e+01  3.4052804694615104e+00  -9.4065504269843938e+00  6.6350623078505722e-01  2.3339014102308464e-01  -6.9523809119537233e-02  3.1757545341048963e+00  -1.2103891413082851e+01  -1.2521512406041486e+01  -3.3387639814266756e+00  -2.4833279474419787e+00  -4.6221261001540181e+00  -3.9219065887304048e+00  6.4624828617379668e+00  -9.4448233388027454e+00  6.0074903521229572e-01  3.6018976429187402e+00  4.8284540245551710e+00  6.5649346921779816e+00  1.0301462147697926e+01  -1.3763191074050892e+01  -1.1434464648988181e+01  -8.4644131560651488e+00  6.6620169720464020e+00  7.3764612276030332e+00  4.0032003036669233e+00  -2.0270420061566847e+00  1.2836466456931337e+00  5.1558511490338033e+00  -1.3734314736153513e+01  -4.8938932060828204e+00  -3.4145532771506106e+00  7.9749843160203637e+00  -4.2596412152207602e-01  -7.4996403720290914e+00  -5.7946064901680536e+00  -3.6669901346815887e+00  -1.4188342464204894e+01  4.2674200339160038e+00  2.2840020896301438e+00  4.4848062932867512e+00  -2.8697999820793920e+00  -1.6918156875665780e+00  -1.1214222048498026e+00  -5.0462580751841291e+00  3.6230462736045643e+00  -1.1114731713157841e+01  -3.1680108376567317e+00  -6.6197485537190481e-01  5.8301681471289024e+00  9.6897769024262406e+00  5.2932312631031628e+00  -4.0926908311509722e+00  -7.6967500264515047e+00  3.5562047967503112e+00  -1.3816188951304641e+01  -8.8892716986364135e+00  1.0416732377699738e+01  1.4272980900998864e+00  -1.7774429703007701e+01  -1.1856008464819507e+01  -1.0776379576553371e+01  8.8372624779882312e+00  3.3262702906847155e+00  -1.3139267889770268e+01  -1.1426022009777105e+01  -1.3624009297616469e+01  -4.0593056047360774e+00  -1.4878546455200208e+01  -1.6732601218643399e+01  9.8162750573574993e+00  7.2257205036308143e+00  -4.9495300069941113e+00  -1.1025433620638866e+01  1.4666170373270001e+01  -1.6305701862080164e+00  3.7752354730426672e+00  1.3582108694745111e+01  -1.1749611893013471e+01  -1.4475646375647317e+01  -4.2162088156691530e-01  1.1569917292732301e+01  1.3212711820569259e+01  1.5124104164407782e+01  -1.1926609971392985e+01  1.3292936279850379e+01  -1.3828410198533669e+00  7.6628399800016056e-01  1.2563892150267506e+00  -1.0563704976866160e+00  1.3690712089359196e+00  -1.0528151092555234e+01  -1.6550196539064896e+01  7.2255242030098330e+00  -1.4140612507836829e+01  2.2661373762389854e+00  -8.3431071423679306e+00  -4.2552100234911366e-01  7.3920854305008152e+00  6.1743465854025743e+00  3.3381480855488879e+00  1.4130000655876047e+00  8.4715750224421065e+00  -5.7959923778444082e+00  -1.8920376395105336e+01  1.0737935058044776e+01  -6.3899578288071612e-01  1.2036816113529625e+01  8.8896340946849346e+00  -1.5486423800952350e+01  1.5180309383623782e+00  -2.8538984774972015e-01  1.2826455928922927e-02  2.3892209275646317e+00  -7.3615831817185855e+00  3.8918513466083229e+00  5.0053894996257107e+00  -1.5694240163669697e+01  -6.4745011249990814e+00  -2.7738880970420259e+00  -2.7805563607669193e+00  -1.1020840582981417e+00  -1.9161596053754590e+01  -9.5247739302363765e+00  -1.1252349069665986e+01  -1.6911541482681329e+01  1.4038588257692077e+00  8.4942531905956509e-01  -1.0387941600719278e+01  2.4083390866774912e+00  4.9644450256316563e+00  5.7790454042923809e+00  1.0600234815969918e+01  -9.4373381163136720e+00  -5.3145665391762220e+00  2.1314531764664237e+00  6.9412447275275513e+00  4.3367679965915826e+00  5.5941568678356219e+00  2.8601253853915685e+00  -4.7767523124676918e+00  5.7554672879774733e+00  -1.0757311943155635e+01  -1.2294565668043248e+01  2.5579588539424187e+00  -1.4197308198884013e+00  -1.0216824048694841e+01  -1.8638384417567728e+01  9.4501196867109938e-01  -1.6366499664123513e+01  -1.8044855068368133e+01  -1.5944194790123653e+01  6.9402464925791216e+00  4.8557305956128731e+00  -6.1186013440265405e+00  4.4972400201496274e+00  3.8889138485192216e+00  1.1849438373368164e+00  1.7400647268313476e+00  4.2225865977048231e+00  -8.3033170331617310e+00  -5.9246619401679936e+00  -1.4779909446810018e+01  -1.3314028332938637e+01  -1.9054030846775174e+01  7.1470544202100568e+00  1.5160231312231376e+00  5.8755483054097670e+00  -7.7073564509668824e+00  3.6719320319390486e-01  -6.8132638838354111e+00  -1.8299574478905534e+01  -1.7306396285023933e+01  -1.9435505836420987e+01  -3.9480129742314780e+00  -8.5081646264520916e-01  -1.0479030979302783e+01  4.7317869175434968e+00  -1.2430822079075314e+01  8.1777303261129415e+00  9.6650087668396196e+00  -1.4417649044024373e+01  -1.0928075492641785e+01  1.0025879767055907e+00  -6.4671372606205786e+00  1.1212085409238057e+01  1.9441548909899793e+00  1.5008341991513381e+00  -2.0024432917654460e+00  -1.8761968258765351e+00  -1.0157448693724469e+01  -1.9154488928154525e+01  9.1012936014789432e+00  8.4246553112941687e+00  7.0860261899375043e+00  -1.9438394413686355e-01  9.0514965855683780e+00  1.0303000881248421e+01  8.2629280373299387e+00  -7.6597411180067754e+00  1.4130971860455683e+00  3.0838408853850874e+00  -2.7536061834481611e+00  -1.1518618098486421e+01  1.1531245319202840e+01  9.5396248999225297e-01  -2.0255549702600597e+01  -7.0873714617207453e+00  -1.5382508843088276e+01  3.0649568048351430e+00  3.7337737304105603e+00  -1.4481332998916043e+01  -9.4905206967611910e+00  -1.7642448433679643e+00  -9.4707320630348200e+00  -7.8153396339018997e+00  -1.0297671943230151e+01  -4.0039987948397471e+00  5.6606915768567090e+00  -1.8981193338839340e+01  -1.7309126068833960e+00  -4.3288426300122245