<?xml version="1.0"?>
<VTKFile type="UnstructuredGrid"  version="0.1"  >
<UnstructuredGrid>
<Piece  NumberOfPoints="5185" NumberOfCells="10070">
<Points>
<DataArray  type="Float64"  NumberOfComponents="3"  format="ascii">0 1.5 0  0 0 0  0.1232405621108402 0 0  0.1232405621108402 0.02253860454731437 0  0.1476111412843772 0.06045996594834066 0  0.1886148129381372 0.07918571535047463 0  0.2332332010401509 0.07277055962836147 0  0.2673002826264945 0.0432512653964478 0  0.28 0 0  0.5342215165449864 0 0  0.5342215165449864 0.02394141003279682 0  0.5649999999999999 0.06062177826491071 0  0.6121553724366851 0.06893654271085457 0  0.6536231110183285 0.04499513267805775 0  0.6699999999999999 0 0  0.91 0 0  0.9220577136594005 0.04499999999999999 0  0.9550000000000001 0.07794228634059948 0  1 0.09 0  1.045 0.07794228634059946 0  1.077942286340599 0.04499999999999999 0  1.09 0 0  1.52324056211084 0 0  1.52324056211084 0.02253860454731437 0  1.547611141284377 0.06045996594834066 0  1.588614812938137 0.07918571535047463 0  1.633233201040151 0.07277055962836147 0  1.667300282626495 0.0432512653964478 0  1.68 0 0  1.84 0 0  1.857573593128807 0.04242640687119285 0  1.9 0.06 0  1.942426406871193 0.04242640687119285 0  1.96 0 0  2.22324056211084 0 0  2.22324056211084 0.02253860454731437 0  2.247611141284377 0.06045996594834066 0  2.288614812938137 0.07918571535047463 0  2.333233201040151 0.07277055962836147 0  2.367300282626494 0.0432512653964478 0  2.38 0 0  2.534221516544986 0 0  2.534221516544986 0.02394141003279682 0  2.565 0.06062177826491071 0  2.612155372436685 0.06893654271085457 0  2.653623111018328 0.04499513267805775 0  2.67 0 0  3 0 0  3 1.5 0  0 0.75 0  1.5 1.5 0  0 0.375 0  0.75 1.5 0  2.25 1.5 0  3 0.75 0  1.216228490499689 0.8069757125887627 0  1.965682393638027 0.8065702515463131 0  0.6025408912810675 0.8974591087189325 0  2.494676348647751 0.9946763486477508 0  2.356709259621435 0.5447946099875809 0  0.8599642199210003 0.5226206461323684 0  0.4216394361293908 0.4974105777134379 0  0.375 1.5 0  0 1.125 0  1.875 1.5 0  1.591091407334617 1.058091082812092 0  1.125 1.5 0  1.590810830624645 0.5394732912049653 0  0.9375 1.13479915923725 0  3 0.375 0  3 1.125 0  2.625 1.5 0  1.995245765771775 0.4277948434396763 0  2.145880954246818 1.137688199332401 0  1.227783477957362 0.427141979786574 0  2.705436295205127 0.5625 0  1.268702849688826 1.133996222613609 0  0.3526676910824388 1.147332308917561 0  0.3097907151415997 0.7889144057821572 0  0.903221947180751 0.828141240074398 0  0.6461527570085278 1.190944174645022 0  2.258488242757536 0.8210127920483788 0  2.400058919161888 1.260760484185309 0  2.778889354513028 0.9375 0  2.725079155390203 1.225079155390203 0  1.853608154101008 1.201589046866999 0  2.540576981905353 0.3370046821869876 0  0.7811555507088518 0.2732832036972447 0  1.493222576519009 0.798835058995101 0  1.747409300790817 0.3184283662481822 0  1.459899526511598 0.3067772450698331 0  0.1875 1.5 0  0 0.5625 0  2.521594883841638 0.7403247928378012 0  0.2438476629309629 0.32244155773108 0  3 0.1875 0  2.776470677837637 0.28125 0  2.121241022911138 0.6281701698960991 0  1.728545483402697 0.8581016441191361 0  1.012422318322288 0.3271268474523591 0  2.305755967143385 0.3144626442661202 0  1.30662028105542 0 0  1.6875 1.5 0  1.8265892939935 0.6051726401583923 0  0.5458598773451642 0.2962606377138959 0  0 0.9375 0  1.349377516922966 0.6209336375388498 0  1.079656249611334 0.612728400373996 0  0.7151087041654347 0.6989529576230681 0  2.0625 1.5 0  1.59375 1.288981971791887 0  2.085107439753329 0.2191742438537923 0  0.6402689932842839 0.4934943541428904 0  1.228474271256239 0.2064231070567615 0  1.3125 1.5 0  1.06968030723948 0.9647793670181679 0  0.2113350105157037 0.5332932754427466 0  0 1.3125 0  0.5051540211699285 0.7110632261327643 0  0.4775171365050886 1.316467280173536 0  1.967112413780365 1.020384154410382 0  0.8191736043349165 1.304781661824189 0  1.103455205015878 1.280328263155604 0  0.7649318329201844 1.023310716596371 0  0.2120544860962804 0.9823800432730223 0  1.359100570345391 0.9517705003379791 0  0.1711043107784345 1.21875 0  3 1.3125 0  2.8125 1.5 0  2.714178691455841 0.7554813872281284 0  2.217815962767571 1.313132398873298 0  2.020480176543968 1.307095379623413 0  2.29875620117699 1.013690599387144 0  0.3848285295772316 0.1937040883803935 0  0.9375 1.5 0  3 0.9375 0  2.4375 1.5 0  3 0.5625 0  0 0.1875 0  0.5625 1.5 0  2.835 0 0  1.386383673099448 1.305536509588035 0  1.773513842966063 1.0362399691084 0  2.179843036592861 0.4515211056338026 0  0.4134910794700652 0.9582824971065591 0  2.107214813096467 0.9125353945687058 0  1.916698009609654 0.2702971158297667 0  2.533006985360663 0.5155509623987015 0  2.838574938309606 0.4465309273225452 0  0.3016597101560133 1.338635596991575 0  1.641573393474498 0.7066136805426366 0  2.855238878880983 0.65625 0  1.398074618385877 0.1459865472102536 0  1.756539173374812 1.342993235461221 0  2.434593137832078 0.2067018044975929 0  1.434366740555482 0.4743139981449843 0  1.440742946818836 1.142108619191562 0  0.549043549720087 1.055391704395 0  2.571565919072277 1.32487216700893 0  2.535776521770127 1.159155922815097 0  2.652193336606067 1.04269083214613 0  0.660031172970541 1.35825582857438 0  2.607645482283307 0.8780318994093907 0  1.09590027081365 1.121554905778777 0  0.1474979543625655 0.8283466240195498 0  1.056776372361757 0.7739494406659941 0  0.3647560414155882 0.6427945145874604 0  1.699724067482516 1.17405657891935 0  0.913786173488833 0.9822051271795349 0  0.9283491691592597 0.66876089182342 0  0.7498959802087029 0.8498501951910959 0  0.3951228082283652 0.3465404522808934 0  1.23887612906836 1.360760366473919 0  0.1206420558503055 0.65625 0  1.735537276557186 0.4760109437618505 0  1.799297742536812 0.1791526413061006 0  1.970987958006469 0.6541756362249113 0  1.080810552147559 0.461742062484039 0  2.268149337929528 0.6688757993926466 0  2.413602460817152 0.8574959373397593 0  2.833998248858927 1.096635576389 0  2.71875 1.378451438260757 0  2.001906612723158 1.162230131308666 0  2.859452984352005 0.8083820929207302 0  2.688478120768856 0.4086214703657035 0  1.214106348747711 0.9519545202622776 0  2.850368184690094 1.307066142740315 0  1.864893983840636 0.9141560734025058 0  1.60661446108863 0.2395589708587393 0  1.61163060570479 0.3901968276506504 0  2.771867619212225 0.1335769833684914 0  0.7969119039620236 1.163109784140262 0  0.9599416701963486 1.276596315583475 0  2.103624150445193 0.7698297553089299 0  2.279721363034605 1.185280797873663 0  2.34375 1.392122382816539 0  0.1382307077648764 1.361769292235123 0  0.1426478344893104 0.2175212356047023 0  2.406413880432258 1.104106228251116 0  2.414971181397263 0.4111042519521358 0  2.637277274673136 0.2192348292007474 0  1.353600469573883 0.7646239317376279 0  1.494012125944227 0.651091825511382 0  1.590274899157226 0.9102986199774393 0  1.028633500752755 1.396325660524358 0  1.829615743479497 0.7518128394998403 0  1.861059000344659 0.3963812297683985 0  0.510900777690535 1.185277566959035 0  1.213080286311768 0.6640546084318578 0  0.79 0 0  0.8167897395818556 0.1376517357725223 0  0.9319739747594649 0.2144569310211157 0  1.889188139713804 1.330032757791382 0  0.655714683266079 0.2049689967103183 0  2.09162028105542 0 0  0.1359367774292784 0.4137345801986589 0  0.4380798275211911 0.8267965724704243 0  2.40400705830434 0.6721965963037969 0  0.3027633520173528 0.4394586980387968 0  0.8782788855287165 0.379708545377904 0  0.7595213470930909 0.4371189613680841 0  1.317967779309324 0.3170637160852436 0  0.6053759621699666 0.6225641226781395 0  0.6530309552265516 0.3661735489900947 0  2.594089294631991 0.631328821944253 0  0 1.03125 0  0.1304283746114646 1.089970844689444 0  0.4071107582724932 0 0  1.469526282978338 1.017083854458662 0  1.088959023533499 0.2104112015424126 0  1.161808378403757 0.3165749773273478 0  2.172966779463329 0.3188379172988492 0  2.216343768168092 0.1920401700474863 0  3 0.09375 0  1.905024675365066 0.5108806275986008 0  1.702014103004408 0.5963171944847371 0  0.2428042557945101 0.6514309613450368 0  3 1.40625 0  0.262372466757009 0.191725613649506 0  2.116791485436391 1.387145016777417 0  1.96875 1.5 0  2.885528053432104 0.3345800153572822 0  2.875601419873791 0.2042517854891826 0  2.298911783255236 0.4400662366556407 0  2.459247322083259 1.363881377923602 0  0.9735587139454543 0.5585353431007029 0  1.176315140569268 0.5379697839544898 0  2.0296370010214 0.5459700999805513 0  0.4987416453488727 0.4060939323248423 0  0.5397511702990104 0.1771676763212877 0  3 1.21875 0  2.238710633113112 0.5542203056099733 0  1.19831014052771 0 0  1.583962270593198 1.173633921912192 0  1.650563144166832 1.390075718520202 0  1.496025571730155 1.371899864460592 0  3 1.03125 0  2.887481932992674 0.9890041589451042 0  0.247836885460272 1.094286258989912 0  0.4719220056590702 0.6009044603312741 0  1.97565550452845 0.1615660574331665 0  2.131135530378305 0.1108580974478677 0  1.318642333542132 0.5051755928544708 0  1.217460132329928 1.242599824876711 0  1.511891312109549 0.1714963794002952 0  2.174601400318987 1.01685942781215 0  0.9082882406313817 1.384236564302014 0  0.6140422604397168 0.7728109899968187 0  0.8289359680247524 0.7347587321432018 0  0.741509926624258 0.5729763888559004 0  2.058356323822746 0.3313153147701495 0  0.4534336320756143 0.1034622594748756 0  1.40625 1.5 0  1.689084537897351 0.9628079283127213 0  1.156270839633873 0.1228556218721798 0  1.29033806179015 0.1118395069726669 0  1.460859151915469 0.9057320169622244 0  2.326558662668462 0.1831424028173474 0  0.9693052477371982 0.4460054238200853 0  0.6625304018229865 1.076650755704414 0  1.41493042158313 0 0  0.4485426513928407 1.096421738127594 0  0.2454589766548061 0.8778352103982039 0  0.1115239912906509 0.9339683416032414 0  1.134782462834443 0.8782884736059876 0  0.9999448991609674 1.04695529392896 0  0.9835215815673453 0.9000292002687431 0  2.53125 1.5 0  0.3175564878698739 1.010319294269645 0  1.971944763694389 0.9134401013848152 0  2.06
[...]
<PointData  Vectors="f_60"> 
<DataArray  type="Float64"  Name="f_60"  NumberOfComponents="3" format="ascii">-7.8356932557654748e-05 -3.7286554834167963e-04 0.0000000000000000e+00  6.4271058647348258e-05 1.2159142935226419e-04 0.0000000000000000e+00  8.0891681957625378e-04 1.0174840283660757e-03 0.0000000000000000e+00  8.7523597066788855e-05 8.6629186387905557e-04 0.0000000000000000e+00  -5.3174250275541931e-04 6.0785961816531352e-04 0.0000000000000000e+00  1.0859357548062582e-04 7.8457138516619513e-04 0.0000000000000000e+00  -4.2249145651297379e-04 8.2538317557834370e-04 0.0000000000000000e+00  -3.9442242349406310e-05 5.9197512225957498e-04 0.0000000000000000e+00  4.7788252579947368e-04 3.1914361173312653e-04 0.0000000000000000e+00  -3.0796679349409141e-04 4.2572010127751798e-04 0.0000000000000000e+00  2.2310783210313675e-04 7.4749705683086593e-04 0.0000000000000000e+00  -4.7287272594452012e-05 7.1471632501034221e-04 0.0000000000000000e+00  2.0752758197547602e-04 2.6853833637630877e-04 0.0000000000000000e+00  -1.3570878126109245e-04 7.4321232502376868e-04 0.0000000000000000e+00  1.3132803429396987e-04 4.7258642036755141e-04 0.0000000000000000e+00  -5.1472194839554146e-04 9.0856704967956481e-04 0.0000000000000000e+00  -4.7648413535768594e-04 9.2358599455787929e-04 0.0000000000000000e+00  1.3616548190036579e-05 8.7871605240825166e-04 0.0000000000000000e+00  -2.3354016880925500e-04 1.0088969877735689e-03 0.0000000000000000e+00  2.3917461472530051e-04 5.4406260444909418e-04 0.0000000000000000e+00  -4.9657396392305817e-04 8.7560110114891557e-04 0.0000000000000000e+00  -5.1506170842898608e-04 7.7333122707024503e-04 0.0000000000000000e+00  -5.0626958684681740e-04 1.2720003542078545e-04 0.0000000000000000e+00  -4.3772771549674524e-04 4.7011466483557802e-04 0.0000000000000000e+00  -1.0405371719704256e-04 9.4130698398855420e-04 0.0000000000000000e+00  -9.9480321225828546e-05 1.1652721250085011e-03 0.0000000000000000e+00  4.1139981175836692e-04 7.3865651947703178e-04 0.0000000000000000e+00  2.4043195093742658e-04 7.3379828772873854e-04 0.0000000000000000e+00  -3.2249349626977926e-04 1.1169522816617549e-03 0.0000000000000000e+00  1.1710836729252032e-04 1.9323341426080164e-04 0.0000000000000000e+00  4.4296869096948987e-04 4.7417157828108942e-04 0.0000000000000000e+00  -7.6898644925906117e-05 8.6080158736818850e-04 0.0000000000000000e+00  3.2301858735586317e-04 7.0936924956353971e-04 0.0000000000000000e+00  2.0643316330359529e-04 5.6603724045034738e-04 0.0000000000000000e+00  6.2221800816205850e-04 7.3655631126075651e-04 0.0000000000000000e+00  4.9215150817119970e-04 9.1167868801834756e-04 0.0000000000000000e+00  -6.3932195955335356e-05 7.0869481436540600e-04 0.0000000000000000e+00  1.9786550508600902e-04 7.9275621580916203e-04 0.0000000000000000e+00  -3.0782651300763808e-04 6.6372688607313881e-04 0.0000000000000000e+00  2.1890602876049428e-04 1.2912576293783006e-03 0.0000000000000000e+00  7.4791018012291730e-04 2.0122490646112492e-04 0.0000000000000000e+00  8.4662453505093718e-04 7.6176891408739065e-04 0.0000000000000000e+00  8.3611987206703953e-04 9.1841694430892253e-04 0.0000000000000000e+00  9.2997931203197550e-04 8.3302854593211308e-04 0.0000000000000000e+00  -2.1520235695841720e-04 -1.3716629616898618e-04 0.0000000000000000e+00  -4.9267305632859219e-04 1.8126533502097711e-03 0.0000000000000000e+00  1.1167693251688789e-03 8.9330960157410366e-05 0.0000000000000000e+00  -1.4769353388404025e-02 -2.4810202156886896e-03 0.0000000000000000e+00  -4.1155258155864036e-04 -8.7613656624259818e-04 0.0000000000000000e+00  -2.5348048526418850e-05 4.3161249987306730e-06 0.0000000000000000e+00  7.4372821812648788e-05 -7.3129958715416918e-04 0.0000000000000000e+00  1.3094402431658358e-05 3.4068481644180844e-05 0.0000000000000000e+00  3.9809139804216547e-04 -3.2535381742914099e-04 0.0000000000000000e+00  -2.6989897514523627e-05 -4.4502039058011504e-04 0.0000000000000000e+00  7.0369621558630593e-04 -9.8276848781026277e-05 0.0000000000000000e+00  2.4123683864735557e-03 1.5501517029890290e+00 0.0000000000000000e+00  2.1683365724012128e-02 -1.3010751743611231e+00 0.0000000000000000e+00  -1.1438121788679884e-02 1.5797276107208926e+00 0.0000000000000000e+00  2.5138862771322712e-01 1.3614477940554348e-01 0.0000000000000000e+00  -1.2258497286316139e-01 1.5225685133307318e+00 0.0000000000000000e+00  4.2047871824151040e-02 1.0445288543548839e+00 0.0000000000000000e+00  6.5705837941300568e-02 -1.3379451419955606e+00 0.0000000000000000e+00  3.3287856986324946e-04 -7.8824121413333082e-04 0.0000000000000000e+00  4.2002866117135127e-06 -2.8756493762022721e-05 0.0000000000000000e+00  1.7746221191057427e-04 -7.4144244893018755e-04 0.0000000000000000e+00  -6.2850593360222317e-03 -4.5503064490515438e-01 0.0000000000000000e+00  1.2443489825436619e-04 -7.1381441375799673e-04 0.0000000000000000e+00  5.2743396050452286e-03 -4.2745416545022646e-01 0.0000000000000000e+00  -6.8331501703054631e-02 1.1081395141197410e+00 0.0000000000000000e+00  -3.1808118611042621e-03 -4.1818719296435986e-04 0.0000000000000000e+00  1.6099170168035202e-03 -6.8347431839363952e-05 0.0000000000000000e+00  7.7409031821441848e-05 -6.4601052108095283e-04 0.0000000000000000e+00  -8.2839486703169637e-02 -6.8733199422987601e-01 0.0000000000000000e+00  1.4988213447043414e-01 1.2407733274904205e+00 0.0000000000000000e+00  4.1287468295675027e-02 1.3864459404976979e+00 0.0000000000000000e+00  -2.3108013778247929e-01 2.4916126396093849e+00 0.0000000000000000e+00  -5.3112158653191174e-02 2.0301849603984720e-01 0.0000000000000000e+00  -4.9896122860701907e-02 6.5975509315349745e-01 0.0000000000000000e+00  1.0981692232521705e-02 1.5239544604656032e+00 0.0000000000000000e+00  -1.8594641535491709e-03 1.6042002920586200e+00 0.0000000000000000e+00  -7.8686045220741477e-02 8.5473808014849040e-01 0.0000000000000000e+00  4.2907446647249485e-02 -1.1773068534693163e+00 0.0000000000000000e+00  3.7869477607845425e-01 1.8775965644649928e+00 0.0000000000000000e+00  3.3438584333416682e-01 1.2030480100011844e+00 0.0000000000000000e+00  8.4048895634920862e-01 2.3305351122152618e+00 0.0000000000000000e+00  3.2529398397750403e-02 8.2286564973007348e-01 0.0000000000000000e+00  -5.0643759578352943e-01 -1.0389959898195860e+00 0.0000000000000000e+00  5.8129885964612112e-02 -1.3192776571252178e+00 0.0000000000000000e+00  8.5912365097005911e-03 1.6636449255711561e+00 0.0000000000000000e+00  -3.3566410516302866e-02 8.2899738930279909e-01 0.0000000000000000e+00  2.4132322455714967e-02 1.0708840308344527e+00 0.0000000000000000e+00  3.5276934839347781e-04 -6.0590893221441346e-04 0.0000000000000000e+00  -5.6645773500814449e-06 5.4080300397402136e-07 0.0000000000000000e+00  -2.6935060168142625e-02 -6.1627324957454488e-01 0.0000000000000000e+00  9.6176468174977547e-02 5.4199711392836958e-01 0.0000000000000000e+00  -9.1111064724918901e-03 -3.1792809420231730e-03 0.0000000000000000e+00  -9.5304486937140642e-01 2.0795937179363777e-01 0.0000000000000000e+00  -2.5981036237673952e-02 1.7437289027183920e+00 0.0000000000000000e+00  1.9183718712090826e-02 2.3547774005668987e-01 0.0000000000000000e+00  4.0534712228193631e-02 -1.0941781811267972e+00 0.0000000000000000e+00  -2.4613765000604032e-01 -1.6502306309116729e-01 0.0000000000000000e+00  -6.7291984887632547e-04 7.5826431349854020e-04 0.0000000000000000e+00  2.4986369240240469e-04 -7.1222639220104383e-04 0.0000000000000000e+00  -7.3410403819883074e-03 1.5200953770359922e+00 0.0000000000000000e+00  9.0758653848531642e-02 5.7052568357196098e-01 0.0000000000000000e+00  1.6482278290387873e-06 2.9369844859698865e-06 0.0000000000000000e+00  2.6584398779698620e-02 -1.5532358438671123e+00 0.0000000000000000e+00  3.4107969246152101e-02 -1.2998292951553159e+00 0.0000000000000000e+00  3.0521402024559881e-02 -1.1946936478297590e+00 0.0000000000000000e+00  -1.0804296474293217e-03 -6.5992747625615033e-04 0.0000000000000000e+00  -2.4584397385488628e-02 -5.8900292654011444e-01 0.0000000000000000e+00  -1.4982105412146784e-01 1.6928315225882791e+00 0.0000000000000000e+00  5.2462460525001531e-02 1.0664332590735899e+00 0.0000000000000000e+00  7.3059997030066562e-02 1.3541489765343604e+00 0.0000000000000000e+00  -3.6777229714335131e-04 -5.9673382976732821e-04 0.0000000000000000e+00  -1.6146735992154274e-02 -1.4473113525758416e+00 0.0000000000000000e+00  4.2477052690798572e-02 -5.2352884589441584e-01 0.0000000000000000e+00  5.4834444877035368e-05 -1.7095582456091771e-04 0.0000000000000000e+00  3.0030938876763738e-02 -6.9764361730757818e-01 0.0000000000000000e+00  -1.1855215551696460e-01 -1.2837687428990643e+00 0.0000000000000000e+00  6.1660162034402798e-02 -1.3346095701928149e+00 0.0000000000000000e+00  -1.4372824420501462e-01 -1.1073771538239317e-01 0.0000000000000000e+00  -1.1327177221871169e-01 -6.1829186953707316e-01 0.0000000000000000e+00  -2.9067890757957703e-02 -1.5262851791666183e+00 0.0000000000000000e+00  -8.2722692495693934e-03 -4.8528712220244163e-01 0.0000000000000000e+00  -5.6616921090189964e-03 -1.5251096866124458e+00 0.0000000000000000e+00  -3.7391206874376040e-02 -1.4684921933971600e+00 0.0000000000000000e+00  9.4768563017775739e-04 4.2537495618807030e-04 0.0000000000000000e+00  2.4297501046414136e-03 -9.6037227777601337e-04 0.0000000000000000e+00  7.5816515840377366e-02 2.5521563711947528e+00 0.0000000000000000e+00  2.3357003858423961e-01 -9.9580602984485234e-01 0.0000000000000000e+00  5.3646576244491255e-02 -1.1064117278178899e-01 0.0000000000000000e+00  1.7479287126707377e-01 -5.6553103901114909e-01 0.0000000000000000e+00  7.1691971823898276e-02 -3.0692829098424262e-01 0.0000000000000000e+00  4.7601748669681915e-04 -7.2819283568221062e-04 0.0000000000000000e+00  1.4015223493224120e-03 -2.9183215036928044e-05 0.0000000000000000e+00  8.3439115930480413e-04 -9.7571003770662392e-04 0.0000000000000000e+00  -9.4866211723496595e-04 -2.2335533693563088e-04 0.0000000000000000e+00  6.8007301336185227e-05 2.5903750949126525e-04 0.0000000000000000e+00  -6.0205187954920564e-04 -7.4822882642204265e-04 0.0000000000000000e+00  2.1779093321653933e-03 7.2890575589704229e-04 0.0000000000000000e+00  -1.0086651385821173e-01 -1.0776050210946606e+00 0.0000000000000000e+00  2.2686097813080380e-02 1.4814242504468522e+00 0.0000000000000000e+00  -1.3207657198070155e-01 5.5492331096624270e-02 0.0000000000000000e+00  -8.3702893974297171e-03 -1.1987415773381118e+00 0.0000000000000000e+00  8.4461604248919506e-02 1.8877568107896292e+00 0.0000000000000000e+00  -1.1231384531848440e-01 -1.1267243174379844e+00 0.0000000000000000e+00  -2.9334296640768864e-01 -8.7729011594331996e-01 0.0000000000000000e+00  -6.4069833897654238e-01 -3.9793415394754755e-01 0.0000000000000000e+00  -9.8034365275264421e-02 1.5031757077611523e+00 0.0000000000000000e+00  9.0053737586140489e-03 -1.4667850384683565e+00 0.0000000000000000e+00  -2.1575621170225126e-01 -2.8061285997070157e-01 0.0000000000000000e+00  1.5469684597590827e-01 -8.8767140056270477e-01 0.0000000000000000e+00  -8.9894855926534789e-02 9.9798617798906297e-01 0.0000000000000000e+00  -4.4874163381532289e-01 1.1615132346561550e+00 0.0000000000000000e+00  2.6625364902342342e-02 3.4111455897877646e-01 0.0000000000000000e+00  -4.1268078302546946e-02 5.8812676204044034e-01 0.0000000000000000e+00  -4.1977550570296687e-02 7.7388947991084989e-01 0.0000000000000000e+00  6.1169211335085627e-01 -1.2614127945577236e+00 0.0000000000000000e+00  4.3031970787479007e-01 -9.1844081728669558e-01 0.0000000000000000e+00  4.5357897764806987e-01 1.3981602941156186e+00 0.0000000000000000e+00  -2.3143638076181895e-02 3.9723584326545880e-01 0.0000000000000000e+00  1.7882990880806648e-01 1.1805177382041389e-01 0.0000000000000000e+00  -5.4106202021367115e-02 -8.7236673407378085e-01 0.0000000000000000e+00  9.0536532626962554e-03 -1.6780291424233615e+00 0.0000000000000000e+00  1.6229816851231923e-02 -1.5714633403762861e+00 0.0000000000000000e+00  3.5890053810809786e-02 3.2619797314283755e-01 0.0000000000000000e+00  -2.9950419337481664e-03 -7.3324614564286328e-01 0.0000000000000000e+00  -3.4048278250254520e-02 1.5377087445006461e+00 0.0000000000000000e+00  2.3857976259134470e-02 1.3424421361276804e+00 0.0000000000000000e+00  7.0801953243307611e-03 -1.6136501243294978e+00 0.0000000000000000e+00  8.9215935296369397e-02 -6.2789123195119723e-01 0.0000000000000000e+00  -3.3725311732345241e-02 9.8063191452778509e-01 0.0000000000000000e+00  1.8589623674953103e-02 -1.3701295881403324e+00 0.0000000000000000e+00  -1.4435779911577308e-02 4.7275808133621339e-01 0.0000000000000000e+00  -7.0874969890440273e-02 1.5840049611610065e+00 0.0000000000000000e+00  -1.8044354430934068e-02 -1.2212884630925374e+00 0.0000000000000000e+00  4.4832734343841524e-02 -1.2845144488093161e+00 0.0000000000000000e+00  -4.7601665987699278e-02 -1.0588024299621617e+00 0.0000000000000000e+00  1.3824498328350401e-01 2.1250649891682714e+00 0.0000000000000000e+00  6.1508414055067395e-01 -1.8845868628426526e-01 0.0000000000000000e+00  9.9365727287282668e-01 1.8386626644360293e+00 0.0000000000000000e+00  8.5916965692616934e-02 -6.5044413997647477e-01 0.0000000000000000e+00  6.7188641867645615e-02 -2.8965211417419728e-01 0.0000000000000000e+00  -4.7662547941340833e-01 2.3786234463226021e+00 0.0000000000000000e+00  -2.1881563407203389e-02 1.5657294705478098e+00 0.0000000000000000e+00  1.1658741492235889e+00 -5.4301120104843614e-01 0.0000000000000000e+00  3.2009805346070432e-02 5.3596434563371220e-01 0.0000000000000000e+00  -5.2715157499907517e-02 -9.2904762109192407e-01 0.0000000000000000e+00  -9.3928899987955217e-03 -1.0404296313316939e+00 0.0000000000000000e+00  -1.3311218494691068e+00 -1.1900973291428425e-01 0.0000000000000000e+00  -6.8189105727343019e-02 -8.4887176337817039e-01 0.0000000000000000e+00  -8.6932657012789238e-02 4.3204299950575542e-01 0.0000000000000000e+00  3.3607650872888611e-02 1.9079920373549553e+00 0.0000000000000000e+00  2.3501089379571227e-01 -1.1431077221180448e+00 0.0000000000000000e+00  1.0303664725601065e-01 4.8556358178652770e-01 0.0000000000000000e+00  -4.5743918708790729e-02 -1.4867178111359038e+00 0.0000000000000000e+00  1.0237860743806051e-01 -1.4729937754136930e+00 0.0000000000000000e+00  3.1726583659654367e-01 2.0581889161976430e+00 0.0000000000000000e+00  -2.6312613773449300e-01 1.8774649696675270e+00 0.0000000000000000e+00  -7.1693377148147130e-01 1.3204603242068378e+00 0.0000000000000000e+00  1.5511700977067664e-02 -1.5480683026987980e+00 0.0000000000000000e+00  1.5639189072240819e-02 1.6634440352945563e+00 0.0000000000000000e+00  5.4719781950784722e-03 -4.0617075777881717e-01 0.0000000000000000e+00  -6.0901792248738325e-02 -1.3015821819428979e+00 0.0000000000000000e+00  1.4083889014715799e-02 1.4812520304302925e+00 0.0000000000000000e+00  -5.5999867037258254e-02 5.6585787531824616e-01 0.0000000000000000e+00  -6.9755935460728016e-02 -4.3744374687172960e-01 0.0000000000000000e+00  2.0095620039334409e-02 1.5824021115135811e+00 0.0000000000000000e+00  7.1173145643884327e-04 7.2132972993727831e-04 0.0000000000000000e+00  2.0083500892889461e-01 -3.7568830305503736e-01 0.0000000000000000e+00  -1.8633636623889720e-02 1.2300340616699037e+00 0.0000000000000000e+00  8.1700123928056950e-02 -3.6062082870047435e-01 0.0000000000000000e+00  3.6013034866877396e-02 5.8975974176476542e-01 0.0000000000000000e+00  -1.2763038532780487e-04 5.0033230245681115e-04 0.0000000000000000e+00  5.1754660022882579e-02 -1.5495810064214497e+00 0.0000000000000000e+00  1.5479792048453121e-02 -1.5883543653628145e+00 0.0000000000000000e+00  -2.3966352418863992e-02 2.1435122439690550e+00 0.0000000000000000e+00  6.0340893492524840e-02 1.5760075784290697e+00 0.0000000000000000e+00  4.8986695784749366e-02 1.4169229355834181e+00 0.0000000000000000e+00  5.5065688471888405e-02 -1.5976547495820539e+00 0.0000000000000000e+00  5.2245032294401257e-02 -1.2027067489960206e+00 0.0000000000000000e+00  3.6232463502618877e-02 1.5709146565763994e+00 0.0000000000000000e+00  6.3516403663158527e-02 7.1649223806536633e-01 0.0000000000000000e+00  -1.5106402551006506e-01 -8.6120537520600934e-02 0.0000000000000000e+00  -2.4284334958291690e-06 -1.0712426442630086e-05 0.0000000000000000e+00  -9.7435524078660352e-03 -1.5398689535620840e+00 0.0000000000000000e+00  -8.7468273089314928e-04 7.6686319718274139e-04 0.0000000000000000e+00  -1.6940533902980778e-02 1.3552671757489558e+00 0.0000000000000000e+00  1.0411929034392367e-01 -1.0483510372858267e+00 0.0000000000000000e+00  5.8025893630225867e-02 1.1085276665579027e+00 0.0000000000000000e+00  -1.7993549539611856e-01 1.9044194943856310e-01 0.0000000000000000e+00  -2.6513314169486696e-01 -1.0625631045380226e+00 0.0000000000000000e+00  -7.6981326145903013e-03 2.2965539654239438e-04 0.0000000000000000e+00  -4.5180659446657064e-02 -7.7789967925942261e-01 0.0000000000000000e+00  1.5381902034949933e-03 -6.2350351041054097e-01 0.0000000000000000e+00  2.7344922612721867e-02 5.1555513846668255e-01 0.0000000000000000e+00  -1.9557140219785926e-04 4.9832883150478444e-04 0.0000000000000000e+00  2.2964673836638963e-01 9.9730333545611849e-01 0.0000000000000000e+00  1.7865839789740159e-01 1.4190348489075404e+00 0.0000000000000000e+00  4.9900542758042816e-04 -2.9448010937006169e-04 0.0000000000000000e+00  -8.2577734642269729e-01 5.1220557617161488e-01 0.0000000000000000e+00  -1.2778297774083700e+00 3.9211192216631946e-01 0.0000000000000000e+00  -1.8715939842594895e-01 -3.4204247215255501e-01 0.0000000000000000e+00  5.6706788146585552e-01 9.6587055248067877e-01 0.0000000000000000e+00  3.7738712077435004e-02 7.9798658855553165e-02 0.0000000000000000e+00  3.4039903973283117e-02 1.4242525782833488e+00 0.0000000000000000e+00  -4.7654372833411104e-02 4.3022599431238590e-01 0.0000000000000000e+00  7.7181511610183703e-02 -9.1962982493721357e-01 0.0000000000000000e+00  1.9027393324298014e-01 3.3565081555608373e-01 0.0000000000000000e+00  1.4209905654965949e-03 5.3967147909614847e-05 0.0000000000000000e+00  -1.1272435674458427e-01 -1.1906892502554307e+00 0.0000000000000000e+00  1.2926573014413430e-04 5.7542304767958222e-04 0.0000000000000000e+00  -2.2588920869578571e-02 -2.5095980709361099e-01 0.0000000000000000e+00  -7.1376476914080250e-02 -1.4293750409232087e+00 0.0000000000000000e+00  -1.0560196685665306e-01 1.4821778555583678e+00 0.0000000000000000e+00  1.6229603050000564e-03 7.2539631372775125e-05 0.0000000000000000e+00  4.3185680410582150e-01 -4.5022485833060684e-02 0.0000000000000000e+00  -3.1519176192143873e-02 7.0580010873590826e-01 0.0000000000000000e+00  4.9841408192704814e-02 -1.4853577524571961e+00 0.0000000000000000e+00  -8.5563361032435004e-02 -1.1061637617516649e+00 0.0000000000000000e+00  -3.0967844905948372e-01 1.1049523582062191e+00 0.0000000000000000e+00  3.4995854314488387e-02 -1.2108749175549223e+00 0.0000000000000000e+00  -8.6889537865719652e-02 1.4865791439020115e+00 0.0000000000000000e+00  -7.9706368145325238e-02 1.4568763123775086e+00 0.0000000000000000e+00  1.2667049062249905e-01 4.0549345113958041e-01 0.0000000000000000e+00  -1.0285482650229724e-01 1.3742939349936654e+00 0.0000000000000000e+00  1.1941018757025858e-02 1.5171365529797596e+00 0.0000000000000000e+00  1.9628148616380618e-02 1.1281014087165443e-01 0.0000000000000000e+00  4.5613518552496658e-02 -1.5889638148281366e+00 0.0000000000000000e+00  -1.1731731496500333e-01 1.2841066701387185e+00 0.0000000000000000e+00  5.7355723319086296e-02 -1.3112761771894925e+00 0.0000000000000000e+00  2.6265431908335026e-04 -8.2233464089754649e-04 0.0000000000000000e+00  1.4468039967358104e-02 -9.9501245111910996e-01 0.0000000000000000e+00  2.7617821601115800e-01 7.9335596336953229e-01 0.0000000000000000e+00  -8.7632449298120307e-02 -4.3637671524457988e-01 0.0000000000000000e+00  -1.5354929967845363e-03 1.1609621692805643e+00 0.0000000000000000e+00  -2.0965732115539532e-01 4.2684392457873821e-01 0.0000000000000000e+00  4.4673709802825104e-02 2.2410073172904454e-01 0.0000000000000000e+00  -4.8116839336115366e-02 3.7056104437103021e-01 0.0000000000000000e+00  6.9238664688070018e-04 7.2759718772713296e-04