<?xml version="1.0"?>
<VTKFile type="UnstructuredGrid"  version="0.1"  >
<UnstructuredGrid>
<Piece  NumberOfPoints="5185" NumberOfCells="10070">
<Points>
<DataArray  type="Float64"  NumberOfComponents="3"  format="ascii">0 1.5 0  0 0 0  0.1232405621108402 0 0  0.1232405621108402 0.02253860454731437 0  0.1476111412843772 0.06045996594834066 0  0.1886148129381372 0.07918571535047463 0  0.2332332010401509 0.07277055962836147 0  0.2673002826264945 0.0432512653964478 0  0.28 0 0  0.5342215165449864 0 0  0.5342215165449864 0.02394141003279682 0  0.5649999999999999 0.06062177826491071 0  0.6121553724366851 0.06893654271085457 0  0.6536231110183285 0.04499513267805775 0  0.6699999999999999 0 0  0.91 0 0  0.9220577136594005 0.04499999999999999 0  0.9550000000000001 0.07794228634059948 0  1 0.09 0  1.045 0.07794228634059946 0  1.077942286340599 0.04499999999999999 0  1.09 0 0  1.52324056211084 0 0  1.52324056211084 0.02253860454731437 0  1.547611141284377 0.06045996594834066 0  1.588614812938137 0.07918571535047463 0  1.633233201040151 0.07277055962836147 0  1.667300282626495 0.0432512653964478 0  1.68 0 0  1.84 0 0  1.857573593128807 0.04242640687119285 0  1.9 0.06 0  1.942426406871193 0.04242640687119285 0  1.96 0 0  2.22324056211084 0 0  2.22324056211084 0.02253860454731437 0  2.247611141284377 0.06045996594834066 0  2.288614812938137 0.07918571535047463 0  2.333233201040151 0.07277055962836147 0  2.367300282626494 0.0432512653964478 0  2.38 0 0  2.534221516544986 0 0  2.534221516544986 0.02394141003279682 0  2.565 0.06062177826491071 0  2.612155372436685 0.06893654271085457 0  2.653623111018328 0.04499513267805775 0  2.67 0 0  3 0 0  3 1.5 0  0 0.75 0  1.5 1.5 0  0 0.375 0  0.75 1.5 0  2.25 1.5 0  3 0.75 0  1.216228490499689 0.8069757125887627 0  1.965682393638027 0.8065702515463131 0  0.6025408912810675 0.8974591087189325 0  2.494676348647751 0.9946763486477508 0  2.356709259621435 0.5447946099875809 0  0.8599642199210003 0.5226206461323684 0  0.4216394361293908 0.4974105777134379 0  0.375 1.5 0  0 1.125 0  1.875 1.5 0  1.591091407334617 1.058091082812092 0  1.125 1.5 0  1.590810830624645 0.5394732912049653 0  0.9375 1.13479915923725 0  3 0.375 0  3 1.125 0  2.625 1.5 0  1.995245765771775 0.4277948434396763 0  2.145880954246818 1.137688199332401 0  1.227783477957362 0.427141979786574 0  2.705436295205127 0.5625 0  1.268702849688826 1.133996222613609 0  0.3526676910824388 1.147332308917561 0  0.3097907151415997 0.7889144057821572 0  0.903221947180751 0.828141240074398 0  0.6461527570085278 1.190944174645022 0  2.258488242757536 0.8210127920483788 0  2.400058919161888 1.260760484185309 0  2.778889354513028 0.9375 0  2.725079155390203 1.225079155390203 0  1.853608154101008 1.201589046866999 0  2.540576981905353 0.3370046821869876 0  0.7811555507088518 0.2732832036972447 0  1.493222576519009 0.798835058995101 0  1.747409300790817 0.3184283662481822 0  1.459899526511598 0.3067772450698331 0  0.1875 1.5 0  0 0.5625 0  2.521594883841638 0.7403247928378012 0  0.2438476629309629 0.32244155773108 0  3 0.1875 0  2.776470677837637 0.28125 0  2.121241022911138 0.6281701698960991 0  1.728545483402697 0.8581016441191361 0  1.012422318322288 0.3271268474523591 0  2.305755967143385 0.3144626442661202 0  1.30662028105542 0 0  1.6875 1.5 0  1.8265892939935 0.6051726401583923 0  0.5458598773451642 0.2962606377138959 0  0 0.9375 0  1.349377516922966 0.6209336375388498 0  1.079656249611334 0.612728400373996 0  0.7151087041654347 0.6989529576230681 0  2.0625 1.5 0  1.59375 1.288981971791887 0  2.085107439753329 0.2191742438537923 0  0.6402689932842839 0.4934943541428904 0  1.228474271256239 0.2064231070567615 0  1.3125 1.5 0  1.06968030723948 0.9647793670181679 0  0.2113350105157037 0.5332932754427466 0  0 1.3125 0  0.5051540211699285 0.7110632261327643 0  0.4775171365050886 1.316467280173536 0  1.967112413780365 1.020384154410382 0  0.8191736043349165 1.304781661824189 0  1.103455205015878 1.280328263155604 0  0.7649318329201844 1.023310716596371 0  0.2120544860962804 0.9823800432730223 0  1.359100570345391 0.9517705003379791 0  0.1711043107784345 1.21875 0  3 1.3125 0  2.8125 1.5 0  2.714178691455841 0.7554813872281284 0  2.217815962767571 1.313132398873298 0  2.020480176543968 1.307095379623413 0  2.29875620117699 1.013690599387144 0  0.3848285295772316 0.1937040883803935 0  0.9375 1.5 0  3 0.9375 0  2.4375 1.5 0  3 0.5625 0  0 0.1875 0  0.5625 1.5 0  2.835 0 0  1.386383673099448 1.305536509588035 0  1.773513842966063 1.0362399691084 0  2.179843036592861 0.4515211056338026 0  0.4134910794700652 0.9582824971065591 0  2.107214813096467 0.9125353945687058 0  1.916698009609654 0.2702971158297667 0  2.533006985360663 0.5155509623987015 0  2.838574938309606 0.4465309273225452 0  0.3016597101560133 1.338635596991575 0  1.641573393474498 0.7066136805426366 0  2.855238878880983 0.65625 0  1.398074618385877 0.1459865472102536 0  1.756539173374812 1.342993235461221 0  2.434593137832078 0.2067018044975929 0  1.434366740555482 0.4743139981449843 0  1.440742946818836 1.142108619191562 0  0.549043549720087 1.055391704395 0  2.571565919072277 1.32487216700893 0  2.535776521770127 1.159155922815097 0  2.652193336606067 1.04269083214613 0  0.660031172970541 1.35825582857438 0  2.607645482283307 0.8780318994093907 0  1.09590027081365 1.121554905778777 0  0.1474979543625655 0.8283466240195498 0  1.056776372361757 0.7739494406659941 0  0.3647560414155882 0.6427945145874604 0  1.699724067482516 1.17405657891935 0  0.913786173488833 0.9822051271795349 0  0.9283491691592597 0.66876089182342 0  0.7498959802087029 0.8498501951910959 0  0.3951228082283652 0.3465404522808934 0  1.23887612906836 1.360760366473919 0  0.1206420558503055 0.65625 0  1.735537276557186 0.4760109437618505 0  1.799297742536812 0.1791526413061006 0  1.970987958006469 0.6541756362249113 0  1.080810552147559 0.461742062484039 0  2.268149337929528 0.6688757993926466 0  2.413602460817152 0.8574959373397593 0  2.833998248858927 1.096635576389 0  2.71875 1.378451438260757 0  2.001906612723158 1.162230131308666 0  2.859452984352005 0.8083820929207302 0  2.688478120768856 0.4086214703657035 0  1.214106348747711 0.9519545202622776 0  2.850368184690094 1.307066142740315 0  1.864893983840636 0.9141560734025058 0  1.60661446108863 0.2395589708587393 0  1.61163060570479 0.3901968276506504 0  2.771867619212225 0.1335769833684914 0  0.7969119039620236 1.163109784140262 0  0.9599416701963486 1.276596315583475 0  2.103624150445193 0.7698297553089299 0  2.279721363034605 1.185280797873663 0  2.34375 1.392122382816539 0  0.1382307077648764 1.361769292235123 0  0.1426478344893104 0.2175212356047023 0  2.406413880432258 1.104106228251116 0  2.414971181397263 0.4111042519521358 0  2.637277274673136 0.2192348292007474 0  1.353600469573883 0.7646239317376279 0  1.494012125944227 0.651091825511382 0  1.590274899157226 0.9102986199774393 0  1.028633500752755 1.396325660524358 0  1.829615743479497 0.7518128394998403 0  1.861059000344659 0.3963812297683985 0  0.510900777690535 1.185277566959035 0  1.213080286311768 0.6640546084318578 0  0.79 0 0  0.8167897395818556 0.1376517357725223 0  0.9319739747594649 0.2144569310211157 0  1.889188139713804 1.330032757791382 0  0.655714683266079 0.2049689967103183 0  2.09162028105542 0 0  0.1359367774292784 0.4137345801986589 0  0.4380798275211911 0.8267965724704243 0  2.40400705830434 0.6721965963037969 0  0.3027633520173528 0.4394586980387968 0  0.8782788855287165 0.379708545377904 0  0.7595213470930909 0.4371189613680841 0  1.317967779309324 0.3170637160852436 0  0.6053759621699666 0.6225641226781395 0  0.6530309552265516 0.3661735489900947 0  2.594089294631991 0.631328821944253 0  0 1.03125 0  0.1304283746114646 1.089970844689444 0  0.4071107582724932 0 0  1.469526282978338 1.017083854458662 0  1.088959023533499 0.2104112015424126 0  1.161808378403757 0.3165749773273478 0  2.172966779463329 0.3188379172988492 0  2.216343768168092 0.1920401700474863 0  3 0.09375 0  1.905024675365066 0.5108806275986008 0  1.702014103004408 0.5963171944847371 0  0.2428042557945101 0.6514309613450368 0  3 1.40625 0  0.262372466757009 0.191725613649506 0  2.116791485436391 1.387145016777417 0  1.96875 1.5 0  2.885528053432104 0.3345800153572822 0  2.875601419873791 0.2042517854891826 0  2.298911783255236 0.4400662366556407 0  2.459247322083259 1.363881377923602 0  0.9735587139454543 0.5585353431007029 0  1.176315140569268 0.5379697839544898 0  2.0296370010214 0.5459700999805513 0  0.4987416453488727 0.4060939323248423 0  0.5397511702990104 0.1771676763212877 0  3 1.21875 0  2.238710633113112 0.5542203056099733 0  1.19831014052771 0 0  1.583962270593198 1.173633921912192 0  1.650563144166832 1.390075718520202 0  1.496025571730155 1.371899864460592 0  3 1.03125 0  2.887481932992674 0.9890041589451042 0  0.247836885460272 1.094286258989912 0  0.4719220056590702 0.6009044603312741 0  1.97565550452845 0.1615660574331665 0  2.131135530378305 0.1108580974478677 0  1.318642333542132 0.5051755928544708 0  1.217460132329928 1.242599824876711 0  1.511891312109549 0.1714963794002952 0  2.174601400318987 1.01685942781215 0  0.9082882406313817 1.384236564302014 0  0.6140422604397168 0.7728109899968187 0  0.8289359680247524 0.7347587321432018 0  0.741509926624258 0.5729763888559004 0  2.058356323822746 0.3313153147701495 0  0.4534336320756143 0.1034622594748756 0  1.40625 1.5 0  1.689084537897351 0.9628079283127213 0  1.156270839633873 0.1228556218721798 0  1.29033806179015 0.1118395069726669 0  1.460859151915469 0.9057320169622244 0  2.326558662668462 0.1831424028173474 0  0.9693052477371982 0.4460054238200853 0  0.6625304018229865 1.076650755704414 0  1.41493042158313 0 0  0.4485426513928407 1.096421738127594 0  0.2454589766548061 0.8778352103982039 0  0.1115239912906509 0.9339683416032414 0  1.134782462834443 0.8782884736059876 0  0.9999448991609674 1.04695529392896 0  0.9835215815673453 0.9000292002687431 0  2.53125 1.5 0  0.3175564878698739 1.010319294269645 0  1.971944763694389 0.9134401013848152 0  2.06
[...]
<PointData  Vectors="f_60"> 
<DataArray  type="Float64"  Name="f_60"  NumberOfComponents="3" format="ascii">-1.4815852466039034e-04 -1.7163295892684978e-04 0.0000000000000000e+00  -6.4641457582883266e-05 1.4816252532340565e-04 0.0000000000000000e+00  7.5289816036757545e-04 6.0606826283269221e-04 0.0000000000000000e+00  2.8304153595615504e-04 7.8314741553007074e-04 0.0000000000000000e+00  -5.9136520605261513e-04 6.7297786964293888e-04 0.0000000000000000e+00  -2.4665065867542616e-04 8.8838689636020244e-04 0.0000000000000000e+00  -2.0892775977825900e-04 8.2688349561970212e-04 0.0000000000000000e+00  2.8237767395469679e-04 5.7462275858351371e-04 0.0000000000000000e+00  6.2476351932168469e-04 2.8214443065780858e-04 0.0000000000000000e+00  -3.1790918239125288e-04 2.9228435079039301e-04 0.0000000000000000e+00  1.3532268781309495e-04 6.0109086702861989e-04 0.0000000000000000e+00  1.0991065077339289e-04 1.0548472723363620e-03 0.0000000000000000e+00  2.9189378783026521e-04 3.0049597557621407e-04 0.0000000000000000e+00  -1.8934263735190601e-04 9.4439506258921398e-04 0.0000000000000000e+00  1.5523491784339140e-04 4.5952119070202834e-04 0.0000000000000000e+00  -6.4774342786209124e-04 1.0290113507480205e-03 0.0000000000000000e+00  -7.6507275461228151e-04 1.1447328062578995e-03 0.0000000000000000e+00  -1.1268454279451929e-04 9.9318926725620329e-04 0.0000000000000000e+00  -1.5816077923373891e-04 1.1550067544651304e-03 0.0000000000000000e+00  2.1869685142441054e-04 7.9850927039760902e-04 0.0000000000000000e+00  -5.1190953481511381e-04 1.0153585774412242e-03 0.0000000000000000e+00  -4.3302074592635725e-04 2.6336651833340556e-04 0.0000000000000000e+00  -7.0247779821085469e-04 -1.9213208529887572e-05 0.0000000000000000e+00  -6.6689193860890194e-04 5.5591466147691265e-04 0.0000000000000000e+00  -3.5969096107981607e-04 1.0065603974009543e-03 0.0000000000000000e+00  -1.1999750945617209e-05 1.3564014450087188e-03 0.0000000000000000e+00  5.2769835168962702e-04 8.7647562620551955e-04 0.0000000000000000e+00  2.0795531215286682e-04 6.8955625327493046e-04 0.0000000000000000e+00  -5.1373467687247903e-04 8.2927954425834666e-04 0.0000000000000000e+00  -1.3196894409746391e-04 6.7232863601468179e-05 0.0000000000000000e+00  2.3274299254119520e-04 3.8996642389437923e-04 0.0000000000000000e+00  1.8268496072597172e-04 1.0370606015246120e-03 0.0000000000000000e+00  3.7920988311315924e-04 7.3659272463001961e-04 0.0000000000000000e+00  8.6567811296227708e-05 5.6242568194327244e-04 0.0000000000000000e+00  3.7840291417034870e-04 1.6196424550892480e-04 0.0000000000000000e+00  3.5414965148445530e-04 5.2354093155046141e-04 0.0000000000000000e+00  2.0740312636578306e-04 1.0048660881635777e-03 0.0000000000000000e+00  2.2811360127984344e-04 9.9376215676897175e-04 0.0000000000000000e+00  -2.6666189142068400e-05 4.0510960818934238e-04 0.0000000000000000e+00  3.5417287390694283e-04 1.5576874144129270e-03 0.0000000000000000e+00  5.3837364812676935e-04 3.6928843404443039e-04 0.0000000000000000e+00  5.3924851800774324e-04 2.1600798632044700e-04 0.0000000000000000e+00  6.7411731568588434e-04 4.3870774598482940e-04 0.0000000000000000e+00  1.3303152733878548e-03 1.2646903027283580e-03 0.0000000000000000e+00  1.7313041858764327e-04 -9.4464295160574872e-04 0.0000000000000000e+00  -5.4181724397726276e-04 1.1260252991915764e-03 0.0000000000000000e+00  6.8263884316238958e-04 -2.2834505717586479e-04 0.0000000000000000e+00  -1.1167677383324205e-02 -9.4251046703188032e-04 0.0000000000000000e+00  -3.4867467454972553e-04 1.4190849207593242e-03 0.0000000000000000e+00  -2.6420425487208483e-05 -1.7212225151301348e-05 0.0000000000000000e+00  2.2547476185522434e-04 -7.4916454368369027e-04 0.0000000000000000e+00  1.6996414962015217e-05 1.8720119300050111e-05 0.0000000000000000e+00  4.3071972460520373e-04 -3.4133268271293449e-04 0.0000000000000000e+00  -1.1447207782765229e-05 -4.4060281576686455e-04 0.0000000000000000e+00  2.5663233251055774e-04 -1.8389567565684490e-04 0.0000000000000000e+00  -1.9241618238173960e-03 2.1852549861223118e+00 0.0000000000000000e+00  2.1729367323268314e-02 -1.8439975796830317e+00 0.0000000000000000e+00  -2.5677254599776024e-02 2.2232629876044014e+00 0.0000000000000000e+00  3.2760684476680557e-01 4.1047871500540356e-01 0.0000000000000000e+00  -1.3935814467394944e-01 2.2217096618637933e+00 0.0000000000000000e+00  6.0915415082730143e-02 1.4358029512329871e+00 0.0000000000000000e+00  9.8421947038645263e-02 -1.8416399904356011e+00 0.0000000000000000e+00  1.9481752721260502e-04 -8.7041256025783176e-04 0.0000000000000000e+00  -3.6602171525095359e-07 -5.6550541595197867e-05 0.0000000000000000e+00  7.1164166300086913e-05 -8.4908857807708773e-04 0.0000000000000000e+00  -8.2326160096472326e-03 -6.5229661954571527e-01 0.0000000000000000e+00  7.7296911106983709e-05 -7.5235214879280845e-04 0.0000000000000000e+00  6.9996219759385931e-03 -5.9538513649797997e-01 0.0000000000000000e+00  -1.0609238514723500e-01 1.5102716163684204e+00 0.0000000000000000e+00  -5.3936018264534790e-03 2.6863133682105824e-05 0.0000000000000000e+00  8.6786301691388454e-04 2.4412038488933756e-04 0.0000000000000000e+00  7.7513230741217915e-04 -3.9440548986097244e-04 0.0000000000000000e+00  -1.1985604100374128e-01 -8.9512674676981352e-01 0.0000000000000000e+00  2.0921992699014022e-01 1.8638041308539870e+00 0.0000000000000000e+00  5.1997911436170052e-02 1.9781751386694237e+00 0.0000000000000000e+00  -2.7244436513716908e-01 3.3099085961856796e+00 0.0000000000000000e+00  -7.8434836804809699e-02 2.2837604955280980e-01 0.0000000000000000e+00  -7.6195679056691529e-02 8.8204536813598533e-01 0.0000000000000000e+00  8.7580954883952258e-03 2.1511401183793950e+00 0.0000000000000000e+00  -1.1035547827524882e-02 2.2592834442268344e+00 0.0000000000000000e+00  -1.1965792921671929e-01 1.1343379727449832e+00 0.0000000000000000e+00  3.2794618773097278e-02 -1.6759945504870479e+00 0.0000000000000000e+00  5.3734316372429580e-01 2.5823842577819089e+00 0.0000000000000000e+00  4.7632969364147243e-01 1.9445079514454755e+00 0.0000000000000000e+00  1.2512287431904709e+00 3.2872117538585819e+00 0.0000000000000000e+00  3.8984336290352452e-02 1.1878565916763866e+00 0.0000000000000000e+00  -7.3780465647854321e-01 -1.3249497759364917e+00 0.0000000000000000e+00  8.5891156928497733e-02 -1.8770553449633254e+00 0.0000000000000000e+00  1.0038887216989161e-02 2.3409698171154214e+00 0.0000000000000000e+00  -4.3394818048297278e-02 1.1881830221412326e+00 0.0000000000000000e+00  4.5393358262791970e-02 1.4873324698761479e+00 0.0000000000000000e+00  3.2610234824543378e-04 -6.7504791069188260e-04 0.0000000000000000e+00  -7.9951903142069618e-06 -6.1145019225042282e-06 0.0000000000000000e+00  -9.0620588825993498e-02 -8.8928148703200494e-01 0.0000000000000000e+00  1.3367951677398895e-01 6.6520562255615268e-01 0.0000000000000000e+00  -6.2131114832056304e-03 -2.7463076982977477e-03 0.0000000000000000e+00  -1.4224650127759115e+00 -3.1350054973548180e-01 0.0000000000000000e+00  -2.1273185846898610e-02 2.4224704017439533e+00 0.0000000000000000e+00  3.0264305947318011e-02 3.1214373061995032e-01 0.0000000000000000e+00  6.0166563427501769e-02 -1.5163193411214226e+00 0.0000000000000000e+00  -3.3984535667605514e-01 1.9452318584109046e-03 0.0000000000000000e+00  -6.1404123625069637e-04 8.1459912078080533e-04 0.0000000000000000e+00  2.3120704868785251e-04 -8.0555549586445649e-04 0.0000000000000000e+00  -5.0758040100489796e-03 2.1249420615101706e+00 0.0000000000000000e+00  1.2859132507207255e-01 7.1924313800354356e-01 0.0000000000000000e+00  2.6400704778545121e-06 -1.2822505668099743e-05 0.0000000000000000e+00  4.3500584995854102e-02 -2.1829527059518470e+00 0.0000000000000000e+00  5.3280675437437683e-02 -1.8452043263676183e+00 0.0000000000000000e+00  4.8650415472495677e-02 -1.6603309473111205e+00 0.0000000000000000e+00  -1.1391144784931389e-03 -7.2459342177440722e-04 0.0000000000000000e+00  -3.6781326569048790e-02 -8.7458294861323815e-01 0.0000000000000000e+00  -2.0955377499225133e-01 2.4083717100404303e+00 0.0000000000000000e+00  7.1200897936156790e-02 1.5431661936376526e+00 0.0000000000000000e+00  1.0032212181338912e-01 1.9656382819402969e+00 0.0000000000000000e+00  -4.1951042313554787e-04 -5.0350053120008017e-04 0.0000000000000000e+00  -1.3605202376229508e-02 -2.0265230058900472e+00 0.0000000000000000e+00  6.2945348250685179e-02 -7.7857096402841075e-01 0.0000000000000000e+00  8.3050692007310557e-05 -3.4522119740645945e-04 0.0000000000000000e+00  4.6605138209329204e-02 -1.0042331756726062e+00 0.0000000000000000e+00  -1.6225515994712589e-01 -1.7330889787800254e+00 0.0000000000000000e+00  8.1983850693029145e-02 -1.9120461171860652e+00 0.0000000000000000e+00  -2.0868885669733497e-01 -2.9150022034550995e-02 0.0000000000000000e+00  -1.5730318354675119e-01 -7.6634671880765182e-01 0.0000000000000000e+00  -3.1403389751498707e-02 -2.1337713187203415e+00 0.0000000000000000e+00  -1.2180743036547923e-02 -6.6834874179009673e-01 0.0000000000000000e+00  8.0010353720561875e-05 -2.1459031092459475e+00 0.0000000000000000e+00  -4.1523934833049975e-02 -2.0345251614822097e+00 0.0000000000000000e+00  -7.1258733839258933e-05 -3.4915463850012247e-04 0.0000000000000000e+00  2.2087005725382413e-03 -1.0145747080529963e-03 0.0000000000000000e+00  1.6499397433371021e-01 3.5400606375662567e+00 0.0000000000000000e+00  3.2294824525964794e-01 -1.2700665225975052e+00 0.0000000000000000e+00  7.2751737080569145e-02 -2.2653740660483526e-01 0.0000000000000000e+00  2.2995295092268758e-01 -9.5262791559685811e-01 0.0000000000000000e+00  1.1802236712597683e-01 -3.1900602793470245e-01 0.0000000000000000e+00  4.5340026941630959e-04 -8.0123989977566460e-04 0.0000000000000000e+00  1.1902643996251272e-03 1.2056188501802635e-05 0.0000000000000000e+00  4.2637513852408218e-04 -1.0118445328293401e-03 0.0000000000000000e+00  -2.6518507519387121e-03 -2.9326308984904204e-04 0.0000000000000000e+00  8.6071133423299044e-05 3.7420209883734664e-04 0.0000000000000000e+00  -4.4165653008544100e-04 -7.8013212478658667e-04 0.0000000000000000e+00  2.1840533050040138e-03 8.8367503345309305e-04 0.0000000000000000e+00  -1.3089929103945439e-01 -1.4529445624033885e+00 0.0000000000000000e+00  3.0743509390489806e-02 2.0810014456235364e+00 0.0000000000000000e+00  -1.9244309903000675e-01 -5.3931775978528579e-02 0.0000000000000000e+00  -4.6840882603162185e-03 -1.6937500548570155e+00 0.0000000000000000e+00  1.3134773804098451e-01 2.6676260988525113e+00 0.0000000000000000e+00  -1.6375173662151715e-01 -1.6326675788772975e+00 0.0000000000000000e+00  -4.5992934592110973e-01 -1.2560204416967824e+00 0.0000000000000000e+00  -9.6268068706480336e-01 -3.7265445329112779e-01 0.0000000000000000e+00  -1.5217658253890462e-01 2.0899173649726506e+00 0.0000000000000000e+00  1.2466821110120348e-02 -2.0635734293430783e+00 0.0000000000000000e+00  -3.9105922173656704e-01 -3.2348896211448003e-01 0.0000000000000000e+00  2.2402157810618811e-01 -1.2889799612490924e+00 0.0000000000000000e+00  -1.4882114676974414e-01 1.4292217071030500e+00 0.0000000000000000e+00  -6.2360336152804918e-01 1.2160545790767150e+00 0.0000000000000000e+00  4.4967686791401403e-02 4.4964375943727269e-01 0.0000000000000000e+00  -6.1416260013196625e-02 8.6709430084363492e-01 0.0000000000000000e+00  -6.6029689148014867e-02 1.1244993750285577e+00 0.0000000000000000e+00  8.3265073280821655e-01 -1.8666927353878289e+00 0.0000000000000000e+00  5.5685612932901685e-01 -1.0822400499384135e+00 0.0000000000000000e+00  6.4158864849515729e-01 1.5663099334505055e+00 0.0000000000000000e+00  -2.2317597334093643e-02 4.6864540275946703e-01 0.0000000000000000e+00  2.1972743542918030e-01 6.2308301953631117e-03 0.0000000000000000e+00  -7.0642080515246564e-02 -1.1760657874724016e+00 0.0000000000000000e+00  1.6935504768446966e-02 -2.3601581740273958e+00 0.0000000000000000e+00  3.1084502798466154e-02 -2.2117559743909627e+00 0.0000000000000000e+00  4.8988605158971826e-02 4.9874246997323762e-01 0.0000000000000000e+00  1.8013967205515489e-04 -1.0306288633251439e+00 0.0000000000000000e+00  -5.8570403140073772e-02 2.1559592772441540e+00 0.0000000000000000e+00  2.9790230228281759e-02 1.9045414599004493e+00 0.0000000000000000e+00  1.9132860973975315e-02 -2.2696874509359164e+00 0.0000000000000000e+00  1.2803314632564347e-01 -7.8911447226987486e-01 0.0000000000000000e+00  -4.4438336409691380e-02 1.3002772506018467e+00 0.0000000000000000e+00  3.1589092574855350e-02 -1.9176438111697014e+00 0.0000000000000000e+00  -1.4119383204099934e-02 6.7381050114414287e-01 0.0000000000000000e+00  -1.2241255155595769e-01 2.2467675087591386e+00 0.0000000000000000e+00  -3.3594049575724302e-02 -1.7151197395416684e+00 0.0000000000000000e+00  6.5447322477982156e-02 -1.8342629063065565e+00 0.0000000000000000e+00  -8.6856859646073828e-02 -1.4765209406609050e+00 0.0000000000000000e+00  2.2976400400853200e-01 3.0047992993360548e+00 0.0000000000000000e+00  8.0202915049020096e-01 1.4342282807597664e-01 0.0000000000000000e+00  1.2765949490488664e+00 2.3854433735901890e+00 0.0000000000000000e+00  1.2230414696992666e-01 -9.9860987204300289e-01 0.0000000000000000e+00  -1.0610713177566880e-02 -4.1306894026926183e-01 0.0000000000000000e+00  -6.1668166215686260e-01 3.1290080603331436e+00 0.0000000000000000e+00  -3.9032126324737140e-02 2.2003095815345883e+00 0.0000000000000000e+00  1.6090763565575796e+00 -2.9571353800508616e-02 0.0000000000000000e+00  4.2379778018090092e-02 7.8184965600771505e-01 0.0000000000000000e+00  -7.9346101386936305e-02 -1.3249329037055537e+00 0.0000000000000000e+00  -1.2666155408536030e-02 -1.4666599647582466e+00 0.0000000000000000e+00  -1.8735797471306590e+00 -6.7851030818748037e-01 0.0000000000000000e+00  -9.1310295369134292e-02 -1.1267391171844461e+00 0.0000000000000000e+00  -1.2811082354705605e-01 5.0916318973097563e-01 0.0000000000000000e+00  6.4977196217304148e-02 2.6825758453799380e+00 0.0000000000000000e+00  3.1617624114164605e-01 -1.7461868305337351e+00 0.0000000000000000e+00  8.0865491264137473e-02 4.7123001997807795e-01 0.0000000000000000e+00  -7.8927233586251061e-02 -2.1508598546046400e+00 0.0000000000000000e+00  1.5398236531305690e-01 -2.0493535382798931e+00 0.0000000000000000e+00  4.7228560374513556e-01 2.8982862932122306e+00 0.0000000000000000e+00  -3.5279139531876652e-01 2.4380708813181520e+00 0.0000000000000000e+00  -9.5432681333643610e-01 2.2625695474090755e+00 0.0000000000000000e+00  2.8408956930766650e-02 -2.1796423608116320e+00 0.0000000000000000e+00  2.2688564733991647e-02 2.3355428150580742e+00 0.0000000000000000e+00  7.0333851764790983e-03 -5.6973493764091410e-01 0.0000000000000000e+00  -1.2123067958571303e-01 -1.9226225146956961e+00 0.0000000000000000e+00  2.3326019008562456e-02 2.0869461907351456e+00 0.0000000000000000e+00  -7.8411385416870941e-02 7.3095692997990958e-01 0.0000000000000000e+00  -9.8660264440560946e-02 -5.3941413598160004e-01 0.0000000000000000e+00  2.4539762231287357e-02 2.2339273842223970e+00 0.0000000000000000e+00  6.2187421425945904e-04 7.0917487548951999e-04 0.0000000000000000e+00  2.9747621353684073e-01 -6.1281619644949503e-01 0.0000000000000000e+00  -2.8547768552713616e-02 1.7529098325366097e+00 0.0000000000000000e+00  1.2044852392376967e-01 -4.6972419761163120e-01 0.0000000000000000e+00  6.2937611496177492e-02 8.9463058444582388e-01 0.0000000000000000e+00  2.9661854731437489e-07 3.9498761942706923e-04 0.0000000000000000e+00  8.5944776424443911e-02 -2.1717276315265437e+00 0.0000000000000000e+00  3.0243723623081566e-02 -2.2301730893950036e+00 0.0000000000000000e+00  4.0046124725648044e-03 2.9794017026292119e+00 0.0000000000000000e+00  7.3459735721132749e-02 2.2242856822413937e+00 0.0000000000000000e+00  7.9507980319054122e-02 1.9717502601102113e+00 0.0000000000000000e+00  8.4488375210915914e-02 -2.2499759613665593e+00 0.0000000000000000e+00  7.6126696359827717e-02 -1.6430262124645540e+00 0.0000000000000000e+00  4.5356047495292894e-02 2.2152159627592329e+00 0.0000000000000000e+00  8.9714203655384003e-02 1.0713678171366108e+00 0.0000000000000000e+00  -2.2249006187506490e-01 1.6466459400338244e-02 0.0000000000000000e+00  -2.8835199111314649e-06 -3.0796880946558548e-05 0.0000000000000000e+00  -6.3818142437541501e-03 -2.1647586221111781e+00 0.0000000000000000e+00  -9.1893218458178694e-04 8.1615471846351040e-04 0.0000000000000000e+00  -2.9057978558439144e-02 1.9198016294869000e+00 0.0000000000000000e+00  1.5629695978339719e-01 -1.5241856431899166e+00 0.0000000000000000e+00  6.8255209544270182e-02 1.5139830793745905e+00 0.0000000000000000e+00  -2.5350543586520918e-01 8.9550015735442107e-02 0.0000000000000000e+00  -3.5981840256618225e-01 -1.5692369666111861e+00 0.0000000000000000e+00  -7.1023197419084550e-03 6.6660661834966220e-04 0.0000000000000000e+00  -7.1783592183304892e-02 -1.1262491599358413e+00 0.0000000000000000e+00  3.7856595382130074e-03 -8.7792144860934829e-01 0.0000000000000000e+00  3.5928631548411402e-02 7.0057658042747739e-01 0.0000000000000000e+00  8.1665994206638764e-04 -7.8499903285298917e-05 0.0000000000000000e+00  3.5845284313253056e-01 1.2715785511845012e+00 0.0000000000000000e+00  2.3558971160880332e-01 1.9998830939590100e+00 0.0000000000000000e+00  4.9743870046065303e-04 -1.9820268900897205e-04 0.0000000000000000e+00  -7.8016552895039248e-01 1.3979088327069578e+00 0.0000000000000000e+00  -1.5912166305459057e+00 1.9644832718137204e+00 0.0000000000000000e+00  -2.6084840722030339e-01 -3.0889470385973011e-01 0.0000000000000000e+00  7.8531911059496329e-01 1.6831230712365652e+00 0.0000000000000000e+00  5.4655042700596242e-02 1.5072915941213433e-01 0.0000000000000000e+00  4.5002948179938856e-02 1.9871722305255552e+00 0.0000000000000000e+00  -6.0485186406231552e-02 6.5093279221348088e-01 0.0000000000000000e+00  1.1649556319667984e-01 -1.3520972991680005e+00 0.0000000000000000e+00  2.9072446967407345e-01 3.5030065605365140e-01 0.0000000000000000e+00  -1.0223150801955025e-04 2.0814460111772605e-04 0.0000000000000000e+00  -1.8102928651109090e-01 -1.6850813549958770e+00 0.0000000000000000e+00  6.5066750619163021e-05 4.7150602235343964e-04 0.0000000000000000e+00  -3.1975574166654357e-02 -3.8271171846396695e-01 0.0000000000000000e+00  -1.1098077856446885e-01 -2.0858203945735259e+00 0.0000000000000000e+00  -1.5269204776929779e-01 2.0632557977907768e+00 0.0000000000000000e+00  1.9536720990614739e-03 1.3154558372721286e-04 0.0000000000000000e+00  4.9979285206182189e-01 -2.5792622378909069e-01 0.0000000000000000e+00  -5.1106246714447419e-02 1.0223559068161197e+00 0.0000000000000000e+00  7.7935262792174539e-02 -2.1069476719931730e+00 0.0000000000000000e+00  -8.7622955840219938e-02 -1.4748491912669057e+00 0.0000000000000000e+00  -4.5605235842231862e-01 1.3759372791309188e+00 0.0000000000000000e+00  5.3185703938481696e-02 -1.6766083718438949e+00 0.0000000000000000e+00  -1.3586198631769275e-01 2.0584598042646891e+00 0.0000000000000000e+00  -1.5344787647091745e-01 2.0670627353770241e+00 0.0000000000000000e+00  1.7229536874571127e-01 6.8655246181546803e-01 0.0000000000000000e+00  -1.3066686874587963e-01 1.8737989817174521e+00 0.0000000000000000e+00  9.5976389349266850e-03 2.1407726552478281e+00 0.0000000000000000e+00  2.8006923404962275e-02 1.4052658506933924e-01 0.0000000000000000e+00  7.0908898457946332e-02 -2.2235452750623561e+00 0.0000000000000000e+00  -1.5528688003656799e-01 1.8817200515289481e+00 0.0000000000000000e+00  4.7987340249568661e-02 -1.7829755377229322e+00 0.0000000000000000e+00  1.5337914086132083e-04 -9.1913506750822705e-04 0.0000000000000000e+00  2.3574203555244484e-02 -1.4122566873467652e+00 0.0000000000000000e+00  4.3115565795294364e-01 9.7133513667661331e-01 0.0000000000000000e+00  -1.4656384323697319e-01 -5.5975953531250866e-01 0.0000000000000000e+00  -4.1643692605595507e-03 1.6355636947267154e+00 0.0000000000000000e+00  -2.7663890792455098e-01 8.1583558375794152e-01 0.0000000000000000e+00  6.6796122099245375e-02 3.5854150670168011e-01 0.0000000000000000e+00  -7.1777973879752169e-02 4.7284864017639000e-01 0.0000000000000000e+00  7.9045836791487181e-04 7.8300682831221552e-0