<?xml version="1.0"?>
<VTKFile type="UnstructuredGrid"  version="0.1"  >
<UnstructuredGrid>
<Piece  NumberOfPoints="5185" NumberOfCells="10070">
<Points>
<DataArray  type="Float64"  NumberOfComponents="3"  format="ascii">0 1.5 0  0 0 0  0.1232405621108402 0 0  0.1232405621108402 0.02253860454731437 0  0.1476111412843772 0.06045996594834066 0  0.1886148129381372 0.07918571535047463 0  0.2332332010401509 0.07277055962836147 0  0.2673002826264945 0.0432512653964478 0  0.28 0 0  0.5342215165449864 0 0  0.5342215165449864 0.02394141003279682 0  0.5649999999999999 0.06062177826491071 0  0.6121553724366851 0.06893654271085457 0  0.6536231110183285 0.04499513267805775 0  0.6699999999999999 0 0  0.91 0 0  0.9220577136594005 0.04499999999999999 0  0.9550000000000001 0.07794228634059948 0  1 0.09 0  1.045 0.07794228634059946 0  1.077942286340599 0.04499999999999999 0  1.09 0 0  1.52324056211084 0 0  1.52324056211084 0.02253860454731437 0  1.547611141284377 0.06045996594834066 0  1.588614812938137 0.07918571535047463 0  1.633233201040151 0.07277055962836147 0  1.667300282626495 0.0432512653964478 0  1.68 0 0  1.84 0 0  1.857573593128807 0.04242640687119285 0  1.9 0.06 0  1.942426406871193 0.04242640687119285 0  1.96 0 0  2.22324056211084 0 0  2.22324056211084 0.02253860454731437 0  2.247611141284377 0.06045996594834066 0  2.288614812938137 0.07918571535047463 0  2.333233201040151 0.07277055962836147 0  2.367300282626494 0.0432512653964478 0  2.38 0 0  2.534221516544986 0 0  2.534221516544986 0.02394141003279682 0  2.565 0.06062177826491071 0  2.612155372436685 0.06893654271085457 0  2.653623111018328 0.04499513267805775 0  2.67 0 0  3 0 0  3 1.5 0  0 0.75 0  1.5 1.5 0  0 0.375 0  0.75 1.5 0  2.25 1.5 0  3 0.75 0  1.216228490499689 0.8069757125887627 0  1.965682393638027 0.8065702515463131 0  0.6025408912810675 0.8974591087189325 0  2.494676348647751 0.9946763486477508 0  2.356709259621435 0.5447946099875809 0  0.8599642199210003 0.5226206461323684 0  0.4216394361293908 0.4974105777134379 0  0.375 1.5 0  0 1.125 0  1.875 1.5 0  1.591091407334617 1.058091082812092 0  1.125 1.5 0  1.590810830624645 0.5394732912049653 0  0.9375 1.13479915923725 0  3 0.375 0  3 1.125 0  2.625 1.5 0  1.995245765771775 0.4277948434396763 0  2.145880954246818 1.137688199332401 0  1.227783477957362 0.427141979786574 0  2.705436295205127 0.5625 0  1.268702849688826 1.133996222613609 0  0.3526676910824388 1.147332308917561 0  0.3097907151415997 0.7889144057821572 0  0.903221947180751 0.828141240074398 0  0.6461527570085278 1.190944174645022 0  2.258488242757536 0.8210127920483788 0  2.400058919161888 1.260760484185309 0  2.778889354513028 0.9375 0  2.725079155390203 1.225079155390203 0  1.853608154101008 1.201589046866999 0  2.540576981905353 0.3370046821869876 0  0.7811555507088518 0.2732832036972447 0  1.493222576519009 0.798835058995101 0  1.747409300790817 0.3184283662481822 0  1.459899526511598 0.3067772450698331 0  0.1875 1.5 0  0 0.5625 0  2.521594883841638 0.7403247928378012 0  0.2438476629309629 0.32244155773108 0  3 0.1875 0  2.776470677837637 0.28125 0  2.121241022911138 0.6281701698960991 0  1.728545483402697 0.8581016441191361 0  1.012422318322288 0.3271268474523591 0  2.305755967143385 0.3144626442661202 0  1.30662028105542 0 0  1.6875 1.5 0  1.8265892939935 0.6051726401583923 0  0.5458598773451642 0.2962606377138959 0  0 0.9375 0  1.349377516922966 0.6209336375388498 0  1.079656249611334 0.612728400373996 0  0.7151087041654347 0.6989529576230681 0  2.0625 1.5 0  1.59375 1.288981971791887 0  2.085107439753329 0.2191742438537923 0  0.6402689932842839 0.4934943541428904 0  1.228474271256239 0.2064231070567615 0  1.3125 1.5 0  1.06968030723948 0.9647793670181679 0  0.2113350105157037 0.5332932754427466 0  0 1.3125 0  0.5051540211699285 0.7110632261327643 0  0.4775171365050886 1.316467280173536 0  1.967112413780365 1.020384154410382 0  0.8191736043349165 1.304781661824189 0  1.103455205015878 1.280328263155604 0  0.7649318329201844 1.023310716596371 0  0.2120544860962804 0.9823800432730223 0  1.359100570345391 0.9517705003379791 0  0.1711043107784345 1.21875 0  3 1.3125 0  2.8125 1.5 0  2.714178691455841 0.7554813872281284 0  2.217815962767571 1.313132398873298 0  2.020480176543968 1.307095379623413 0  2.29875620117699 1.013690599387144 0  0.3848285295772316 0.1937040883803935 0  0.9375 1.5 0  3 0.9375 0  2.4375 1.5 0  3 0.5625 0  0 0.1875 0  0.5625 1.5 0  2.835 0 0  1.386383673099448 1.305536509588035 0  1.773513842966063 1.0362399691084 0  2.179843036592861 0.4515211056338026 0  0.4134910794700652 0.9582824971065591 0  2.107214813096467 0.9125353945687058 0  1.916698009609654 0.2702971158297667 0  2.533006985360663 0.5155509623987015 0  2.838574938309606 0.4465309273225452 0  0.3016597101560133 1.338635596991575 0  1.641573393474498 0.7066136805426366 0  2.855238878880983 0.65625 0  1.398074618385877 0.1459865472102536 0  1.756539173374812 1.342993235461221 0  2.434593137832078 0.2067018044975929 0  1.434366740555482 0.4743139981449843 0  1.440742946818836 1.142108619191562 0  0.549043549720087 1.055391704395 0  2.571565919072277 1.32487216700893 0  2.535776521770127 1.159155922815097 0  2.652193336606067 1.04269083214613 0  0.660031172970541 1.35825582857438 0  2.607645482283307 0.8780318994093907 0  1.09590027081365 1.121554905778777 0  0.1474979543625655 0.8283466240195498 0  1.056776372361757 0.7739494406659941 0  0.3647560414155882 0.6427945145874604 0  1.699724067482516 1.17405657891935 0  0.913786173488833 0.9822051271795349 0  0.9283491691592597 0.66876089182342 0  0.7498959802087029 0.8498501951910959 0  0.3951228082283652 0.3465404522808934 0  1.23887612906836 1.360760366473919 0  0.1206420558503055 0.65625 0  1.735537276557186 0.4760109437618505 0  1.799297742536812 0.1791526413061006 0  1.970987958006469 0.6541756362249113 0  1.080810552147559 0.461742062484039 0  2.268149337929528 0.6688757993926466 0  2.413602460817152 0.8574959373397593 0  2.833998248858927 1.096635576389 0  2.71875 1.378451438260757 0  2.001906612723158 1.162230131308666 0  2.859452984352005 0.8083820929207302 0  2.688478120768856 0.4086214703657035 0  1.214106348747711 0.9519545202622776 0  2.850368184690094 1.307066142740315 0  1.864893983840636 0.9141560734025058 0  1.60661446108863 0.2395589708587393 0  1.61163060570479 0.3901968276506504 0  2.771867619212225 0.1335769833684914 0  0.7969119039620236 1.163109784140262 0  0.9599416701963486 1.276596315583475 0  2.103624150445193 0.7698297553089299 0  2.279721363034605 1.185280797873663 0  2.34375 1.392122382816539 0  0.1382307077648764 1.361769292235123 0  0.1426478344893104 0.2175212356047023 0  2.406413880432258 1.104106228251116 0  2.414971181397263 0.4111042519521358 0  2.637277274673136 0.2192348292007474 0  1.353600469573883 0.7646239317376279 0  1.494012125944227 0.651091825511382 0  1.590274899157226 0.9102986199774393 0  1.028633500752755 1.396325660524358 0  1.829615743479497 0.7518128394998403 0  1.861059000344659 0.3963812297683985 0  0.510900777690535 1.185277566959035 0  1.213080286311768 0.6640546084318578 0  0.79 0 0  0.8167897395818556 0.1376517357725223 0  0.9319739747594649 0.2144569310211157 0  1.889188139713804 1.330032757791382 0  0.655714683266079 0.2049689967103183 0  2.09162028105542 0 0  0.1359367774292784 0.4137345801986589 0  0.4380798275211911 0.8267965724704243 0  2.40400705830434 0.6721965963037969 0  0.3027633520173528 0.4394586980387968 0  0.8782788855287165 0.379708545377904 0  0.7595213470930909 0.4371189613680841 0  1.317967779309324 0.3170637160852436 0  0.6053759621699666 0.6225641226781395 0  0.6530309552265516 0.3661735489900947 0  2.594089294631991 0.631328821944253 0  0 1.03125 0  0.1304283746114646 1.089970844689444 0  0.4071107582724932 0 0  1.469526282978338 1.017083854458662 0  1.088959023533499 0.2104112015424126 0  1.161808378403757 0.3165749773273478 0  2.172966779463329 0.3188379172988492 0  2.216343768168092 0.1920401700474863 0  3 0.09375 0  1.905024675365066 0.5108806275986008 0  1.702014103004408 0.5963171944847371 0  0.2428042557945101 0.6514309613450368 0  3 1.40625 0  0.262372466757009 0.191725613649506 0  2.116791485436391 1.387145016777417 0  1.96875 1.5 0  2.885528053432104 0.3345800153572822 0  2.875601419873791 0.2042517854891826 0  2.298911783255236 0.4400662366556407 0  2.459247322083259 1.363881377923602 0  0.9735587139454543 0.5585353431007029 0  1.176315140569268 0.5379697839544898 0  2.0296370010214 0.5459700999805513 0  0.4987416453488727 0.4060939323248423 0  0.5397511702990104 0.1771676763212877 0  3 1.21875 0  2.238710633113112 0.5542203056099733 0  1.19831014052771 0 0  1.583962270593198 1.173633921912192 0  1.650563144166832 1.390075718520202 0  1.496025571730155 1.371899864460592 0  3 1.03125 0  2.887481932992674 0.9890041589451042 0  0.247836885460272 1.094286258989912 0  0.4719220056590702 0.6009044603312741 0  1.97565550452845 0.1615660574331665 0  2.131135530378305 0.1108580974478677 0  1.318642333542132 0.5051755928544708 0  1.217460132329928 1.242599824876711 0  1.511891312109549 0.1714963794002952 0  2.174601400318987 1.01685942781215 0  0.9082882406313817 1.384236564302014 0  0.6140422604397168 0.7728109899968187 0  0.8289359680247524 0.7347587321432018 0  0.741509926624258 0.5729763888559004 0  2.058356323822746 0.3313153147701495 0  0.4534336320756143 0.1034622594748756 0  1.40625 1.5 0  1.689084537897351 0.9628079283127213 0  1.156270839633873 0.1228556218721798 0  1.29033806179015 0.1118395069726669 0  1.460859151915469 0.9057320169622244 0  2.326558662668462 0.1831424028173474 0  0.9693052477371982 0.4460054238200853 0  0.6625304018229865 1.076650755704414 0  1.41493042158313 0 0  0.4485426513928407 1.096421738127594 0  0.2454589766548061 0.8778352103982039 0  0.1115239912906509 0.9339683416032414 0  1.134782462834443 0.8782884736059876 0  0.9999448991609674 1.04695529392896 0  0.9835215815673453 0.9000292002687431 0  2.53125 1.5 0  0.3175564878698739 1.010319294269645 0  1.971944763694389 0.9134401013848152 0  2.06
[...]
<PointData  Vectors="f_60"> 
<DataArray  type="Float64"  Name="f_60"  NumberOfComponents="3" format="ascii">-7.3355558768069552e-05 -3.8275972341811533e-04 0.0000000000000000e+00  8.0380329246677122e-05 1.1854457315655699e-04 0.0000000000000000e+00  7.9366680356014057e-04 1.0270949606109002e-03 0.0000000000000000e+00  7.0629651281294890e-05 8.6156362755726969e-04 0.0000000000000000e+00  -5.2442679645850335e-04 6.0163037135262110e-04 0.0000000000000000e+00  1.2221199013760073e-04 7.7078928546927996e-04 0.0000000000000000e+00  -4.2100773353693436e-04 8.1010523156391635e-04 0.0000000000000000e+00  -4.8163735305424560e-05 5.8171944905456878e-04 0.0000000000000000e+00  4.6164215892079618e-04 3.1659642713841284e-04 0.0000000000000000e+00  -3.0175868092905886e-04 4.3110920008515455e-04 0.0000000000000000e+00  2.2660568141784926e-04 7.4800868039557862e-04 0.0000000000000000e+00  -5.5720873467229272e-05 6.8793971083174171e-04 0.0000000000000000e+00  2.0644775310452279e-04 2.7253424742938823e-04 0.0000000000000000e+00  -1.3198336329848888e-04 7.2670128307476660e-04 0.0000000000000000e+00  1.2704090568218371e-04 4.7022739972496329e-04 0.0000000000000000e+00  -4.9788298576734368e-04 8.9229840256627494e-04 0.0000000000000000e+00  -4.5319392610362679e-04 9.0082373932949219e-04 0.0000000000000000e+00  1.6699264168447097e-05 8.5987949055917447e-04 0.0000000000000000e+00  -2.3415991090250008e-04 9.8826563597613319e-04 0.0000000000000000e+00  2.3874999946317164e-04 5.2447881387732652e-04 0.0000000000000000e+00  -4.8796544500490297e-04 8.5770795116859677e-04 0.0000000000000000e+00  -5.0858666887163950e-04 8.0282464493491217e-04 0.0000000000000000e+00  -4.8518544841224349e-04 1.3583235967361105e-04 0.0000000000000000e+00  -4.1866651209410561e-04 4.6181446592275964e-04 0.0000000000000000e+00  -9.2923020415061112e-05 9.2409198095843106e-04 0.0000000000000000e+00  -1.0354610258194289e-04 1.1382297863721867e-03 0.0000000000000000e+00  4.0417295972383578e-04 7.2463763248777166e-04 0.0000000000000000e+00  2.4841220835970595e-04 7.2853685725193275e-04 0.0000000000000000e+00  -3.0236906341229487e-04 1.1150296968491171e-03 0.0000000000000000e+00  1.2670653917981370e-04 1.9527960160069393e-04 0.0000000000000000e+00  4.4294580514694215e-04 4.6869349122251233e-04 0.0000000000000000e+00  -8.7535916298584257e-05 8.4340170744078285e-04 0.0000000000000000e+00  3.1841725074158861e-04 7.0232366377965757e-04 0.0000000000000000e+00  2.1669041613776171e-04 5.6109898111910751e-04 0.0000000000000000e+00  6.2119984661712180e-04 7.7228718724598714e-04 0.0000000000000000e+00  4.9406263329477825e-04 9.2970536321602992e-04 0.0000000000000000e+00  -7.9572667814966659e-05 6.8116992538109198e-04 0.0000000000000000e+00  1.8936648187656936e-04 7.7225203411102712e-04 0.0000000000000000e+00  -3.1361935251726886e-04 6.6514631277715772e-04 0.0000000000000000e+00  2.0505405812648245e-04 1.2574027596270682e-03 0.0000000000000000e+00  7.3014186733399305e-04 2.0214027838555811e-04 0.0000000000000000e+00  8.5543163212681837e-04 8.0263525799956659e-04 0.0000000000000000e+00  8.3313032189977611e-04 9.5142067238904128e-04 0.0000000000000000e+00  8.8961518602858074e-04 7.8726916161668504e-04 0.0000000000000000e+00  -2.2306696833572747e-04 -8.6235787714620884e-05 0.0000000000000000e+00  -5.1628760863854444e-04 1.7919070017522105e-03 0.0000000000000000e+00  1.0837995040540256e-03 1.2699213880266639e-04 0.0000000000000000e+00  -1.4695208941859479e-02 -2.8071121084443326e-03 0.0000000000000000e+00  -3.8752122202629274e-04 -8.2626404172425627e-04 0.0000000000000000e+00  -2.4259558720505872e-05 6.2486644071381055e-06 0.0000000000000000e+00  6.6040727830992766e-05 -7.2576486796083260e-04 0.0000000000000000e+00  1.2434251047651380e-05 3.4499259314969057e-05 0.0000000000000000e+00  3.8710742013644607e-04 -3.2495958560590810e-04 0.0000000000000000e+00  -2.4727146280735807e-05 -4.4056050329743069e-04 0.0000000000000000e+00  6.8967042154373197e-04 -9.7359167100320154e-05 0.0000000000000000e+00  2.5443896971205460e-03 1.5043593500244037e+00 0.0000000000000000e+00  2.1405981504885898e-02 -1.2621587120027902e+00 0.0000000000000000e+00  -1.0700670463886666e-02 1.5331290578848003e+00 0.0000000000000000e+00  2.4524569806571128e-01 1.2299347321199659e-01 0.0000000000000000e+00  -1.2028114390554225e-01 1.4742804743358688e+00 0.0000000000000000e+00  4.0709330306361743e-02 1.0150257296697085e+00 0.0000000000000000e+00  6.3464957846375805e-02 -1.3001725690500170e+00 0.0000000000000000e+00  3.3849397468935141e-04 -7.7707409441306146e-04 0.0000000000000000e+00  4.8448787368566789e-06 -2.6658245510262312e-05 0.0000000000000000e+00  1.8337479853630060e-04 -7.2900923878264901e-04 0.0000000000000000e+00  -6.0772596097573963e-03 -4.4112639543065113e-01 0.0000000000000000e+00  1.2517633008019265e-04 -7.0506303565468940e-04 0.0000000000000000e+00  5.1019426763453633e-03 -4.1502311201050163e-01 0.0000000000000000e+00  -6.5864583623668913e-02 1.0774072097503886e+00 0.0000000000000000e+00  -3.1089906525728871e-03 -4.5679240559283528e-04 0.0000000000000000e+00  1.5932488978785369e-03 -7.5451893805777594e-05 0.0000000000000000e+00  3.7825204745748199e-05 -6.4492699000154590e-04 0.0000000000000000e+00  -8.0291500145738409e-02 -6.6994367689996559e-01 0.0000000000000000e+00  1.4560437901411080e-01 1.1992895907294490e+00 0.0000000000000000e+00  4.0281350973561773e-02 1.3444942832524227e+00 0.0000000000000000e+00  -2.2656055119530111e-01 2.4240719641231103e+00 0.0000000000000000e+00  -5.1335236903509364e-02 1.9933278795410095e-01 0.0000000000000000e+00  -4.8115496048648669e-02 6.4207748345519911e-01 0.0000000000000000e+00  1.0926303822963749e-02 1.4787263608407759e+00 0.0000000000000000e+00  -1.4703543052350763e-03 1.5568383224762969e+00 0.0000000000000000e+00  -7.5926061779572923e-02 8.3224405808217372e-01 0.0000000000000000e+00  4.2752604383375324e-02 -1.1417228001292292e+00 0.0000000000000000e+00  3.6748674800585063e-01 1.8234694108903124e+00 0.0000000000000000e+00  3.2456084908368099e-01 1.1560778207948061e+00 0.0000000000000000e+00  8.1313006687362965e-01 2.2553212308119068e+00 0.0000000000000000e+00  3.1902654746457419e-02 7.9738619375335384e-01 0.0000000000000000e+00  -4.9003246627652119e-01 -1.0110110424294103e+00 0.0000000000000000e+00  5.6192082744760799e-02 -1.2795897514961465e+00 0.0000000000000000e+00  8.4216415905080683e-03 1.6146262623060121e+00 0.0000000000000000e+00  -3.2818981120073171e-02 8.0371816179475697e-01 0.0000000000000000e+00  2.2980909941354002e-02 1.0401672950505689e+00 0.0000000000000000e+00  3.4712872134959858e-04 -5.9671719158827202e-04 0.0000000000000000e+00  -5.8417828925048180e-06 1.0087769797140124e-06 0.0000000000000000e+00  -2.3983988419606347e-02 -5.9743100370135538e-01 0.0000000000000000e+00  9.3276720556431700e-02 5.2972515613050308e-01 0.0000000000000000e+00  -9.0172707495284107e-03 -3.1918091843163750e-03 0.0000000000000000e+00  -9.2163224803502497e-01 2.3466574194605311e-01 0.0000000000000000e+00  -2.5833480610705922e-02 1.6935801022358112e+00 0.0000000000000000e+00  1.8507512556484158e-02 2.2933765896586128e-01 0.0000000000000000e+00  3.9181318370930550e-02 -1.0628880184806884e+00 0.0000000000000000e+00  -2.3924082805201147e-01 -1.6956172350127904e-01 0.0000000000000000e+00  -6.7000184455713379e-04 7.4948920880364624e-04 0.0000000000000000e+00  2.4699984258056562e-04 -6.9941377111940755e-04 0.0000000000000000e+00  -7.3728716172620865e-03 1.4758952654477622e+00 0.0000000000000000e+00  8.7962474124434920e-02 5.5695327214048262e-01 0.0000000000000000e+00  2.1388942655003193e-06 4.2671661416232963e-06 0.0000000000000000e+00  2.5567360232591003e-02 -1.5075345456839782e+00 0.0000000000000000e+00  3.2889722999762769e-02 -1.2608609831782858e+00 0.0000000000000000e+00  2.9386000872643755e-02 -1.1603405808375191e+00 0.0000000000000000e+00  -1.0692277891949657e-03 -6.5187874828319978e-04 0.0000000000000000e+00  -2.3767316229271265e-02 -5.6986746668234312e-01 0.0000000000000000e+00  -1.4555950262502571e-01 1.6418548133416075e+00 0.0000000000000000e+00  5.0980920666187417e-02 1.0332789518662298e+00 0.0000000000000000e+00  7.0878520163748598e-02 1.3119862579547010e+00 0.0000000000000000e+00  -3.5944217981644393e-04 -5.9290733463300506e-04 0.0000000000000000e+00  -1.6003326831555430e-02 -1.4050574616873406e+00 0.0000000000000000e+00  4.1091851112380104e-02 -5.0647768987571118e-01 0.0000000000000000e+00  5.3178268784645011e-05 -1.6061427775436514e-04 0.0000000000000000e+00  2.8994591691538500e-02 -6.7623893365518428e-01 0.0000000000000000e+00  -1.1509990658358979e-01 -1.2486343680287322e+00 0.0000000000000000e+00  6.0099128993278010e-02 -1.2938290132713390e+00 0.0000000000000000e+00  -1.3922497248167207e-01 -1.1245271622184637e-01 0.0000000000000000e+00  -1.0994408530779388e-01 -6.0408941390241544e-01 0.0000000000000000e+00  -2.8553878024233505e-02 -1.4818488957691505e+00 0.0000000000000000e+00  -7.9912087749073931e-03 -4.7159823772322385e-01 0.0000000000000000e+00  -5.7866563411672510e-03 -1.4801548463020435e+00 0.0000000000000000e+00  -3.6582055667377419e-02 -1.4265945980563846e+00 0.0000000000000000e+00  9.8764134115091550e-04 4.3306855694829802e-04 0.0000000000000000e+00  2.3308392790847956e-03 -9.4886047560910792e-04 0.0000000000000000e+00  7.1038963576822101e-02 2.4782670269907801e+00 0.0000000000000000e+00  2.2701961487133157e-01 -9.7126372827827157e-01 0.0000000000000000e+00  5.2360974928872678e-02 -1.0434472561127105e-01 0.0000000000000000e+00  1.7020235829987609e-01 -5.4217392592474267e-01 0.0000000000000000e+00  6.9033895177288168e-02 -3.0221845241559514e-01 0.0000000000000000e+00  4.7323794793858542e-04 -7.1968449023704058e-04 0.0000000000000000e+00  1.3645792309261964e-03 -3.3941925245396446e-05 0.0000000000000000e+00  8.4286442506582360e-04 -9.6569162459965116e-04 0.0000000000000000e+00  -8.4199893757657882e-04 -2.1588971142876218e-04 0.0000000000000000e+00  6.6777151320856806e-05 2.5173481171041393e-04 0.0000000000000000e+00  -6.0395236489495599e-04 -7.4078968892054317e-04 0.0000000000000000e+00  2.0798246449129816e-03 6.6936515796649448e-04 0.0000000000000000e+00  -9.8206330309149381e-02 -1.0483092432098480e+00 0.0000000000000000e+00  2.2099796743500384e-02 1.4379431270123235e+00 0.0000000000000000e+00  -1.2800339429937543e-01 5.9273442587707538e-02 0.0000000000000000e+00  -8.3661366619473231e-03 -1.1631883778641445e+00 0.0000000000000000e+00  8.1526722602098284e-02 1.8316835861798177e+00 0.0000000000000000e+00  -1.0880520564987255e-01 -1.0915530077289923e+00 0.0000000000000000e+00  -2.8258585418568338e-01 -8.4956316093992712e-01 0.0000000000000000e+00  -6.1802718585393335e-01 -3.8850158138937319e-01 0.0000000000000000e+00  -9.4443027868828258e-02 1.4599636870161745e+00 0.0000000000000000e+00  8.7484771393262790e-03 -1.4235189958161616e+00 0.0000000000000000e+00  -2.0548884388564986e-01 -2.7424624188729974e-01 0.0000000000000000e+00  1.4965378665892282e-01 -8.5975730756943514e-01 0.0000000000000000e+00  -8.6307812706364465e-02 9.6770251091647497e-01 0.0000000000000000e+00  -4.3619349853048250e-01 1.1431648933469960e+00 0.0000000000000000e+00  2.5503105917315836e-02 3.3221259939415893e-01 0.0000000000000000e+00  -3.9860923305682978e-02 5.6923492988460744e-01 0.0000000000000000e+00  -4.0406626724370349e-02 7.4963857420216429e-01 0.0000000000000000e+00  5.9453636326547332e-01 -1.2166329902644826e+00 0.0000000000000000e+00  4.1953608519654073e-01 -8.9807736905695645e-01 0.0000000000000000e+00  4.3944837788850810e-01 1.3730054197077524e+00 0.0000000000000000e+00  -2.2874304803803366e-02 3.8920355702721904e-01 0.0000000000000000e+00  1.7459206647706954e-01 1.2170609180444132e-01 0.0000000000000000e+00  -5.2664112564271601e-02 -8.4869526952354357e-01 0.0000000000000000e+00  8.6191361281902478e-03 -1.6286353359360570e+00 0.0000000000000000e+00  1.5425871728449796e-02 -1.5251149409891691e+00 0.0000000000000000e+00  3.4872500155324344e-02 3.1494350285371209e-01 0.0000000000000000e+00  -2.9768875872875932e-03 -7.1165782756666063e-01 0.0000000000000000e+00  -3.2581488518770123e-02 1.4926893986934018e+00 0.0000000000000000e+00  2.3290042724603485e-02 1.3022832286111594e+00 0.0000000000000000e+00  6.5184290394249200e-03 -1.5661445514226315e+00 0.0000000000000000e+00  8.6391331685525638e-02 -6.1316658176894057e-01 0.0000000000000000e+00  -3.2743710876870516e-02 9.5499349075528572e-01 0.0000000000000000e+00  1.7852846226603790e-02 -1.3302113476244652e+00 0.0000000000000000e+00  -1.4303893117812314e-02 4.5848149581170489e-01 0.0000000000000000e+00  -6.8139270792159493e-02 1.5369775846864435e+00 0.0000000000000000e+00  -1.7195399054862913e-02 -1.1853508568835329e+00 0.0000000000000000e+00  4.3386913098919920e-02 -1.2455639393758071e+00 0.0000000000000000e+00  -4.5389658933037591e-02 -1.0279936824952540e+00 0.0000000000000000e+00  1.3281668405661642e-01 2.0615467163953656e+00 0.0000000000000000e+00  6.0037720654502680e-01 -1.9683330910486763e-01 0.0000000000000000e+00  9.6883886932566721e-01 1.7855045532554195e+00 0.0000000000000000e+00  8.3437695353782440e-02 -6.2782931568185552e-01 0.0000000000000000e+00  6.9218821486435600e-02 -2.8039637232085995e-01 0.0000000000000000e+00  -4.6542300040496759e-01 2.3129688137742832e+00 0.0000000000000000e+00  -2.0877580035869019e-02 1.5197221275860378e+00 0.0000000000000000e+00  1.1353821266700586e+00 -5.4752082929657675e-01 0.0000000000000000e+00  3.1217833698597538e-02 5.1905663874707686e-01 0.0000000000000000e+00  -5.1055571237637307e-02 -9.0100967892920236e-01 0.0000000000000000e+00  -9.1717036408101964e-03 -1.0095999068875292e+00 0.0000000000000000e+00  -1.2918535807990608e+00 -7.9464378324568624e-02 0.0000000000000000e+00  -6.6311475726454336e-02 -8.2656136685041959e-01 0.0000000000000000e+00  -8.4111826132515013e-02 4.2323257306014950e-01 0.0000000000000000e+00  3.1902953416940459e-02 1.8518815349859441e+00 0.0000000000000000e+00  2.2872522602877773e-01 -1.1032497401582093e+00 0.0000000000000000e+00  1.0286749998241282e-01 4.8006531751602033e-01 0.0000000000000000e+00  -4.3719785686271925e-02 -1.4412818417025834e+00 0.0000000000000000e+00  9.8849875479032040e-02 -1.4306836198333650e+00 0.0000000000000000e+00  3.0695830167909088e-01 1.9965718010774902e+00 0.0000000000000000e+00  -2.5629993369365622e-01 1.8294351188995011e+00 0.0000000000000000e+00  -6.9817751483011969e-01 1.2603149493971464e+00 0.0000000000000000e+00  1.4814053561638667e-02 -1.5023827700987953e+00 0.0000000000000000e+00  1.5132626148371926e-02 1.6146337309419554e+00 0.0000000000000000e+00  5.3660807223331938e-03 -3.9424371678893599e-01 0.0000000000000000e+00  -5.7663262751669483e-02 -1.2602991768454288e+00 0.0000000000000000e+00  1.3532412902275354e-02 1.4375495189036307e+00 0.0000000000000000e+00  -5.4386550019796476e-02 5.5182855534023645e-01 0.0000000000000000e+00  -6.7608855567202975e-02 -4.2757315095001441e-01 0.0000000000000000e+00  1.9650299502116653e-02 1.5355141870623190e+00 0.0000000000000000e+00  7.1179819172727114e-04 7.1701921634552174e-04 0.0000000000000000e+00  1.9427977779890648e-01 -3.6112512670323621e-01 0.0000000000000000e+00  -1.7977057765919888e-02 1.1928618302198242e+00 0.0000000000000000e+00  7.9138873475058727e-02 -3.5141427405294662e-01 0.0000000000000000e+00  3.4469626681183668e-02 5.6981347120963999e-01 0.0000000000000000e+00  -1.3589863535815559e-04 4.9828307775930710e-04 0.0000000000000000e+00  4.9686748580340105e-02 -1.5042799741549149e+00 0.0000000000000000e+00  1.4700246076339601e-02 -1.5417808775201989e+00 0.0000000000000000e+00  -2.4841470170436038e-02 2.0816411592242532e+00 0.0000000000000000e+00  5.8936994667686003e-02 1.5291812481921154e+00 0.0000000000000000e+00  4.7158138838355977e-02 1.3759705819179739e+00 0.0000000000000000e+00  5.3152800974570695e-02 -1.5504843002557491e+00 0.0000000000000000e+00  5.0489722179712371e-02 -1.1692183353402281e+00 0.0000000000000000e+00  3.5368043081402838e-02 1.5243810904144579e+00 0.0000000000000000e+00  6.1591184772480045e-02 6.9285859581941833e-01 0.0000000000000000e+00  -1.4594542961534024e-01 -8.8682439031829791e-02 0.0000000000000000e+00  -2.4311461398785181e-06 -9.3159982587918399e-06 0.0000000000000000e+00  -9.7293730512288037e-03 -1.4946210187067039e+00 0.0000000000000000e+00  -8.6663421783029593e-04 7.5918932523218847e-04 0.0000000000000000e+00  -1.6192436370821434e-02 1.3148611005449258e+00 0.0000000000000000e+00  1.0054652675160428e-01 -1.0155548408495199e+00 0.0000000000000000e+00  5.6685685844387101e-02 1.0777093613799043e+00 0.0000000000000000e+00  -1.7473153173402134e-01 1.9216229628364906e-01 0.0000000000000000e+00  -2.5796827291281788e-01 -1.0276549251815326e+00 0.0000000000000000e+00  -7.4749359652284252e-03 3.2707057437305091e-04 0.0000000000000000e+00  -4.3553118172903527e-02 -7.5366081572523358e-01 0.0000000000000000e+00  1.4113354909374713e-03 -6.0508538213827956e-01 0.0000000000000000e+00  2.6626951431384421e-02 5.0132469182484773e-01 0.0000000000000000e+00  -1.3833537584778043e-04 4.8977744285957870e-04 0.0000000000000000e+00  2.2190990810067521e-01 9.7263457317949498e-01 0.0000000000000000e+00  1.7388956026261568e-01 1.3770968186954000e+00 0.0000000000000000e+00  4.9127307653786163e-04 -2.9796950919209076e-04 0.0000000000000000e+00  -8.1375440444978520e-01 4.7259231656273276e-01 0.0000000000000000e+00  -1.2408082154870237e+00 3.2619300592833878e-01 0.0000000000000000e+00  -1.8166797448098387e-01 -3.3874272002012495e-01 0.0000000000000000e+00  5.5061406795769818e-01 9.2277594109504690e-01 0.0000000000000000e+00  3.6529525810397749e-02 7.5944998229458188e-02 0.0000000000000000e+00  3.3140155779067204e-02 1.3829657601351535e+00 0.0000000000000000e+00  -4.6538724284638511e-02 4.1575235154593371e-01 0.0000000000000000e+00  7.4580836015762098e-02 -8.9022559258872713e-01 0.0000000000000000e+00  1.8392929804746228e-01 3.3028700437567265e-01 0.0000000000000000e+00  1.4707921863991711e-03 4.6553776210020710e-05 0.0000000000000000e+00  -1.0849951855755020e-01 -1.1549977742120978e+00 0.0000000000000000e+00  1.3086001225509224e-04 5.7250171497023872e-04 0.0000000000000000e+00  -2.1856685116932697e-02 -2.4238151098559690e-01 0.0000000000000000e+00  -6.8474935226152570e-02 -1.3851477824348220e+00 0.0000000000000000e+00  -1.0227789086529153e-01 1.4394679267146409e+00 0.0000000000000000e+00  1.5928808409460507e-03 5.8654225873682853e-05 0.0000000000000000e+00  4.2263377246581746e-01 -3.2624852233013951e-02 0.0000000000000000e+00  -3.0291121553483014e-02 6.8380245294225872e-01 0.0000000000000000e+00  4.8050082670012949e-02 -1.4409168568419988e+00 0.0000000000000000e+00  -8.4430719416208624e-02 -1.0770492329640056e+00 0.0000000000000000e+00  -3.0011150111268664e-01 1.0788189077259702e+00 0.0000000000000000e+00  3.3773966157708814e-02 -1.1762841711491701e+00 0.0000000000000000e+00  -8.3732913170081968e-02 1.4440699635393199e+00 0.0000000000000000e+00  -7.5803523355684868e-02 1.4137684321662105e+00 0.0000000000000000e+00  1.2325223681393285e-01 3.8876697450013786e-01 0.0000000000000000e+00  -1.0029858273867565e-01 1.3363190872935975e+00 0.0000000000000000e+00  1.1889265677070568e-02 1.4721662065687526e+00 0.0000000000000000e+00  1.9028489289576365e-02 1.1018975720670543e-01 0.0000000000000000e+00  4.3998590736807855e-02 -1.5426257550165170e+00 0.0000000000000000e+00  -1.1436058258725885e-01 1.2431479855192251e+00 0.0000000000000000e+00  5.6856461791826490e-02 -1.2755020207023158e+00 0.0000000000000000e+00  2.6416110353816909e-04 -8.0583701552275984e-04 0.0000000000000000e+00  1.3966073436187502e-02 -9.6519920027473849e-01 0.0000000000000000e+00  2.6671841359261395e-01 7.7504411738480106e-01 0.0000000000000000e+00  -8.4210078732342444e-02 -4.2573821834871750e-01 0.0000000000000000e+00  -1.3723185099423776e-03 1.1266902030291064e+00 0.0000000000000000e+00  -2.0439970768914706e-01 4.0485924398350581e-01 0.0000000000000000e+00  4.3170710122202992e-02 2.1582923215364996e-01 0.0000000000000000e+00  -4.6476741764141037e-02 3.6154368701706935e-01 0.0000000000000000e+00  6.8142930341620503e-04 7.1899583599785010e-04