<?xml version="1.0"?>
<VTKFile type="UnstructuredGrid"  version="0.1"  >
<UnstructuredGrid>
<Piece  NumberOfPoints="5185" NumberOfCells="10070">
<Points>
<DataArray  type="Float64"  NumberOfComponents="3"  format="ascii">0 1.5 0  0 0 0  0.1232405621108402 0 0  0.1232405621108402 0.02253860454731437 0  0.1476111412843772 0.06045996594834066 0  0.1886148129381372 0.07918571535047463 0  0.2332332010401509 0.07277055962836147 0  0.2673002826264945 0.0432512653964478 0  0.28 0 0  0.5342215165449864 0 0  0.5342215165449864 0.02394141003279682 0  0.5649999999999999 0.06062177826491071 0  0.6121553724366851 0.06893654271085457 0  0.6536231110183285 0.04499513267805775 0  0.6699999999999999 0 0  0.91 0 0  0.9220577136594005 0.04499999999999999 0  0.9550000000000001 0.07794228634059948 0  1 0.09 0  1.045 0.07794228634059946 0  1.077942286340599 0.04499999999999999 0  1.09 0 0  1.52324056211084 0 0  1.52324056211084 0.02253860454731437 0  1.547611141284377 0.06045996594834066 0  1.588614812938137 0.07918571535047463 0  1.633233201040151 0.07277055962836147 0  1.667300282626495 0.0432512653964478 0  1.68 0 0  1.84 0 0  1.857573593128807 0.04242640687119285 0  1.9 0.06 0  1.942426406871193 0.04242640687119285 0  1.96 0 0  2.22324056211084 0 0  2.22324056211084 0.02253860454731437 0  2.247611141284377 0.06045996594834066 0  2.288614812938137 0.07918571535047463 0  2.333233201040151 0.07277055962836147 0  2.367300282626494 0.0432512653964478 0  2.38 0 0  2.534221516544986 0 0  2.534221516544986 0.02394141003279682 0  2.565 0.06062177826491071 0  2.612155372436685 0.06893654271085457 0  2.653623111018328 0.04499513267805775 0  2.67 0 0  3 0 0  3 1.5 0  0 0.75 0  1.5 1.5 0  0 0.375 0  0.75 1.5 0  2.25 1.5 0  3 0.75 0  1.216228490499689 0.8069757125887627 0  1.965682393638027 0.8065702515463131 0  0.6025408912810675 0.8974591087189325 0  2.494676348647751 0.9946763486477508 0  2.356709259621435 0.5447946099875809 0  0.8599642199210003 0.5226206461323684 0  0.4216394361293908 0.4974105777134379 0  0.375 1.5 0  0 1.125 0  1.875 1.5 0  1.591091407334617 1.058091082812092 0  1.125 1.5 0  1.590810830624645 0.5394732912049653 0  0.9375 1.13479915923725 0  3 0.375 0  3 1.125 0  2.625 1.5 0  1.995245765771775 0.4277948434396763 0  2.145880954246818 1.137688199332401 0  1.227783477957362 0.427141979786574 0  2.705436295205127 0.5625 0  1.268702849688826 1.133996222613609 0  0.3526676910824388 1.147332308917561 0  0.3097907151415997 0.7889144057821572 0  0.903221947180751 0.828141240074398 0  0.6461527570085278 1.190944174645022 0  2.258488242757536 0.8210127920483788 0  2.400058919161888 1.260760484185309 0  2.778889354513028 0.9375 0  2.725079155390203 1.225079155390203 0  1.853608154101008 1.201589046866999 0  2.540576981905353 0.3370046821869876 0  0.7811555507088518 0.2732832036972447 0  1.493222576519009 0.798835058995101 0  1.747409300790817 0.3184283662481822 0  1.459899526511598 0.3067772450698331 0  0.1875 1.5 0  0 0.5625 0  2.521594883841638 0.7403247928378012 0  0.2438476629309629 0.32244155773108 0  3 0.1875 0  2.776470677837637 0.28125 0  2.121241022911138 0.6281701698960991 0  1.728545483402697 0.8581016441191361 0  1.012422318322288 0.3271268474523591 0  2.305755967143385 0.3144626442661202 0  1.30662028105542 0 0  1.6875 1.5 0  1.8265892939935 0.6051726401583923 0  0.5458598773451642 0.2962606377138959 0  0 0.9375 0  1.349377516922966 0.6209336375388498 0  1.079656249611334 0.612728400373996 0  0.7151087041654347 0.6989529576230681 0  2.0625 1.5 0  1.59375 1.288981971791887 0  2.085107439753329 0.2191742438537923 0  0.6402689932842839 0.4934943541428904 0  1.228474271256239 0.2064231070567615 0  1.3125 1.5 0  1.06968030723948 0.9647793670181679 0  0.2113350105157037 0.5332932754427466 0  0 1.3125 0  0.5051540211699285 0.7110632261327643 0  0.4775171365050886 1.316467280173536 0  1.967112413780365 1.020384154410382 0  0.8191736043349165 1.304781661824189 0  1.103455205015878 1.280328263155604 0  0.7649318329201844 1.023310716596371 0  0.2120544860962804 0.9823800432730223 0  1.359100570345391 0.9517705003379791 0  0.1711043107784345 1.21875 0  3 1.3125 0  2.8125 1.5 0  2.714178691455841 0.7554813872281284 0  2.217815962767571 1.313132398873298 0  2.020480176543968 1.307095379623413 0  2.29875620117699 1.013690599387144 0  0.3848285295772316 0.1937040883803935 0  0.9375 1.5 0  3 0.9375 0  2.4375 1.5 0  3 0.5625 0  0 0.1875 0  0.5625 1.5 0  2.835 0 0  1.386383673099448 1.305536509588035 0  1.773513842966063 1.0362399691084 0  2.179843036592861 0.4515211056338026 0  0.4134910794700652 0.9582824971065591 0  2.107214813096467 0.9125353945687058 0  1.916698009609654 0.2702971158297667 0  2.533006985360663 0.5155509623987015 0  2.838574938309606 0.4465309273225452 0  0.3016597101560133 1.338635596991575 0  1.641573393474498 0.7066136805426366 0  2.855238878880983 0.65625 0  1.398074618385877 0.1459865472102536 0  1.756539173374812 1.342993235461221 0  2.434593137832078 0.2067018044975929 0  1.434366740555482 0.4743139981449843 0  1.440742946818836 1.142108619191562 0  0.549043549720087 1.055391704395 0  2.571565919072277 1.32487216700893 0  2.535776521770127 1.159155922815097 0  2.652193336606067 1.04269083214613 0  0.660031172970541 1.35825582857438 0  2.607645482283307 0.8780318994093907 0  1.09590027081365 1.121554905778777 0  0.1474979543625655 0.8283466240195498 0  1.056776372361757 0.7739494406659941 0  0.3647560414155882 0.6427945145874604 0  1.699724067482516 1.17405657891935 0  0.913786173488833 0.9822051271795349 0  0.9283491691592597 0.66876089182342 0  0.7498959802087029 0.8498501951910959 0  0.3951228082283652 0.3465404522808934 0  1.23887612906836 1.360760366473919 0  0.1206420558503055 0.65625 0  1.735537276557186 0.4760109437618505 0  1.799297742536812 0.1791526413061006 0  1.970987958006469 0.6541756362249113 0  1.080810552147559 0.461742062484039 0  2.268149337929528 0.6688757993926466 0  2.413602460817152 0.8574959373397593 0  2.833998248858927 1.096635576389 0  2.71875 1.378451438260757 0  2.001906612723158 1.162230131308666 0  2.859452984352005 0.8083820929207302 0  2.688478120768856 0.4086214703657035 0  1.214106348747711 0.9519545202622776 0  2.850368184690094 1.307066142740315 0  1.864893983840636 0.9141560734025058 0  1.60661446108863 0.2395589708587393 0  1.61163060570479 0.3901968276506504 0  2.771867619212225 0.1335769833684914 0  0.7969119039620236 1.163109784140262 0  0.9599416701963486 1.276596315583475 0  2.103624150445193 0.7698297553089299 0  2.279721363034605 1.185280797873663 0  2.34375 1.392122382816539 0  0.1382307077648764 1.361769292235123 0  0.1426478344893104 0.2175212356047023 0  2.406413880432258 1.104106228251116 0  2.414971181397263 0.4111042519521358 0  2.637277274673136 0.2192348292007474 0  1.353600469573883 0.7646239317376279 0  1.494012125944227 0.651091825511382 0  1.590274899157226 0.9102986199774393 0  1.028633500752755 1.396325660524358 0  1.829615743479497 0.7518128394998403 0  1.861059000344659 0.3963812297683985 0  0.510900777690535 1.185277566959035 0  1.213080286311768 0.6640546084318578 0  0.79 0 0  0.8167897395818556 0.1376517357725223 0  0.9319739747594649 0.2144569310211157 0  1.889188139713804 1.330032757791382 0  0.655714683266079 0.2049689967103183 0  2.09162028105542 0 0  0.1359367774292784 0.4137345801986589 0  0.4380798275211911 0.8267965724704243 0  2.40400705830434 0.6721965963037969 0  0.3027633520173528 0.4394586980387968 0  0.8782788855287165 0.379708545377904 0  0.7595213470930909 0.4371189613680841 0  1.317967779309324 0.3170637160852436 0  0.6053759621699666 0.6225641226781395 0  0.6530309552265516 0.3661735489900947 0  2.594089294631991 0.631328821944253 0  0 1.03125 0  0.1304283746114646 1.089970844689444 0  0.4071107582724932 0 0  1.469526282978338 1.017083854458662 0  1.088959023533499 0.2104112015424126 0  1.161808378403757 0.3165749773273478 0  2.172966779463329 0.3188379172988492 0  2.216343768168092 0.1920401700474863 0  3 0.09375 0  1.905024675365066 0.5108806275986008 0  1.702014103004408 0.5963171944847371 0  0.2428042557945101 0.6514309613450368 0  3 1.40625 0  0.262372466757009 0.191725613649506 0  2.116791485436391 1.387145016777417 0  1.96875 1.5 0  2.885528053432104 0.3345800153572822 0  2.875601419873791 0.2042517854891826 0  2.298911783255236 0.4400662366556407 0  2.459247322083259 1.363881377923602 0  0.9735587139454543 0.5585353431007029 0  1.176315140569268 0.5379697839544898 0  2.0296370010214 0.5459700999805513 0  0.4987416453488727 0.4060939323248423 0  0.5397511702990104 0.1771676763212877 0  3 1.21875 0  2.238710633113112 0.5542203056099733 0  1.19831014052771 0 0  1.583962270593198 1.173633921912192 0  1.650563144166832 1.390075718520202 0  1.496025571730155 1.371899864460592 0  3 1.03125 0  2.887481932992674 0.9890041589451042 0  0.247836885460272 1.094286258989912 0  0.4719220056590702 0.6009044603312741 0  1.97565550452845 0.1615660574331665 0  2.131135530378305 0.1108580974478677 0  1.318642333542132 0.5051755928544708 0  1.217460132329928 1.242599824876711 0  1.511891312109549 0.1714963794002952 0  2.174601400318987 1.01685942781215 0  0.9082882406313817 1.384236564302014 0  0.6140422604397168 0.7728109899968187 0  0.8289359680247524 0.7347587321432018 0  0.741509926624258 0.5729763888559004 0  2.058356323822746 0.3313153147701495 0  0.4534336320756143 0.1034622594748756 0  1.40625 1.5 0  1.689084537897351 0.9628079283127213 0  1.156270839633873 0.1228556218721798 0  1.29033806179015 0.1118395069726669 0  1.460859151915469 0.9057320169622244 0  2.326558662668462 0.1831424028173474 0  0.9693052477371982 0.4460054238200853 0  0.6625304018229865 1.076650755704414 0  1.41493042158313 0 0  0.4485426513928407 1.096421738127594 0  0.2454589766548061 0.8778352103982039 0  0.1115239912906509 0.9339683416032414 0  1.134782462834443 0.8782884736059876 0  0.9999448991609674 1.04695529392896 0  0.9835215815673453 0.9000292002687431 0  2.53125 1.5 0  0.3175564878698739 1.010319294269645 0  1.971944763694389 0.9134401013848152 0  2.06
[...]
<PointData  Vectors="f_60"> 
<DataArray  type="Float64"  Name="f_60"  NumberOfComponents="3" format="ascii">-2.6455459015442589e-04 -1.6313665490319239e-04 0.0000000000000000e+00  3.6618510499081150e-04 9.7398045991836578e-05 0.0000000000000000e+00  3.5242124946251201e-04 4.3999348559734729e-04 0.0000000000000000e+00  -5.8220122750550225e-05 3.1954588466514113e-04 0.0000000000000000e+00  -2.6215709341901520e-04 3.4228178748028687e-04 0.0000000000000000e+00  1.6988798487708830e-04 4.0501717124364798e-04 0.0000000000000000e+00  -1.3082718902588720e-04 2.0177126921793254e-04 0.0000000000000000e+00  -5.4442812183579063e-05 1.5730357385074177e-04 0.0000000000000000e+00  1.4372153473319856e-04 9.2384362426026678e-05 0.0000000000000000e+00  -2.0256636968045221e-04 3.5308073414777016e-04 0.0000000000000000e+00  9.6474034033551244e-05 4.9544375680198624e-04 0.0000000000000000e+00  5.5066181406145027e-05 1.7487430931759047e-04 0.0000000000000000e+00  5.6804899949010198e-05 3.2932601795522285e-05 0.0000000000000000e+00  -1.2723418280968294e-04 3.5290923787844838e-04 0.0000000000000000e+00  7.0518426923401136e-05 2.1197284879956180e-04 0.0000000000000000e+00  -1.4763227521052291e-04 2.9064163366482402e-04 0.0000000000000000e+00  -1.2084370410837940e-04 3.0680476420147395e-04 0.0000000000000000e+00  -1.8155928324772290e-05 2.7864776378348468e-04 0.0000000000000000e+00  -1.9049243198835335e-04 3.8179099165925771e-04 0.0000000000000000e+00  1.7677057579975364e-04 2.0732578338020037e-04 0.0000000000000000e+00  -1.1892323351445257e-04 1.9999024255898290e-04 0.0000000000000000e+00  -2.9905335298079181e-04 6.1271264328405445e-04 0.0000000000000000e+00  -3.4567656093926590e-04 2.3305022638039512e-04 0.0000000000000000e+00  -1.4242573418982575e-04 2.3476525859828727e-04 0.0000000000000000e+00  -5.4322409313044260e-06 3.0360322293602516e-04 0.0000000000000000e+00  -1.3962799998629564e-04 3.8720271243931458e-04 0.0000000000000000e+00  2.3775114761334320e-04 3.3499888982792286e-04 0.0000000000000000e+00  3.2928249645061903e-04 2.9361939031043340e-04 0.0000000000000000e+00  7.8553769240703218e-05 4.2303420851650948e-04 0.0000000000000000e+00  1.1148084792378449e-04 -1.1295804755502074e-06 0.0000000000000000e+00  1.8569551428371811e-04 1.0396013337364568e-04 0.0000000000000000e+00  -1.1893093167261867e-04 3.8940564769263157e-04 0.0000000000000000e+00  2.1493367528868676e-04 3.5376728756028022e-04 0.0000000000000000e+00  2.6160574158253972e-04 2.6704915111111467e-04 0.0000000000000000e+00  2.5216985050870026e-04 5.6681031876946065e-04 0.0000000000000000e+00  2.5059755833210887e-04 5.3849345892272461e-04 0.0000000000000000e+00  -1.7273008105149173e-04 1.9775287737473557e-04 0.0000000000000000e+00  6.0244827889251173e-05 3.0784441476875194e-04 0.0000000000000000e+00  -8.3843324841441727e-05 2.1161909573658391e-04 0.0000000000000000e+00  1.7613312957984965e-05 3.6870485703663521e-04 0.0000000000000000e+00  3.3531382562699777e-04 3.3596426053626395e-05 0.0000000000000000e+00  4.8200181103289370e-04 7.0011647851618249e-04 0.0000000000000000e+00  3.8293430796746796e-04 6.8721979093653370e-04 0.0000000000000000e+00  2.0569219415731625e-04 8.7687380787347267e-05 0.0000000000000000e+00  8.6654037615796844e-05 5.9732230271673776e-05 0.0000000000000000e+00  -2.5700283659322464e-04 5.1779075959491731e-04 0.0000000000000000e+00  2.1001903969014051e-04 1.7481912884825376e-04 0.0000000000000000e+00  -1.2929457826825828e-02 -5.3820437990728127e-03 0.0000000000000000e+00  9.4294086474994035e-04 6.7801253415765428e-04 0.0000000000000000e+00  -1.6341853120605560e-05 1.9530105690038214e-05 0.0000000000000000e+00  -1.9527300930476394e-05 -4.6092393088870446e-04 0.0000000000000000e+00  2.9185091316910483e-06 3.3674068634607007e-05 0.0000000000000000e+00  6.7446940917533074e-05 -9.7717009782228196e-05 0.0000000000000000e+00  4.2663602861607724e-06 -1.0044856364882936e-04 0.0000000000000000e+00  3.8648853544428417e-04 -3.2757180113492478e-05 0.0000000000000000e+00  1.9182019184611795e-03 5.2621170491790970e-01 0.0000000000000000e+00  9.2699480041720499e-03 -4.3898096070672921e-01 0.0000000000000000e+00  -1.6343299047805009e-03 5.3604253708568417e-01 0.0000000000000000e+00  9.2783708981936636e-02 -1.5478359514744307e-03 0.0000000000000000e+00  -4.8299563768815723e-02 4.9781890056760159e-01 0.0000000000000000e+00  1.3434684974830099e-02 3.6072726344568823e-01 0.0000000000000000e+00  2.0123410833340526e-02 -4.6353808161672705e-01 0.0000000000000000e+00  2.7929985017025510e-04 -3.6143275180963166e-04 0.0000000000000000e+00  4.7675453740598329e-06 9.3838193112390430e-06 0.0000000000000000e+00  2.2974693325380894e-04 -3.1780528134231647e-04 0.0000000000000000e+00  -1.7038766343034941e-03 -1.5189198599087197e-01 0.0000000000000000e+00  -2.6828087867857421e-05 -2.5120085662570113e-04 0.0000000000000000e+00  1.3910480191682405e-03 -1.4556562780333054e-01 0.0000000000000000e+00  -2.0434378383133198e-02 3.8608265290848698e-01 0.0000000000000000e+00  -6.5827201548916052e-04 -1.4346622779147169e-04 0.0000000000000000e+00  9.8793418584401139e-04 -9.7342490996465576e-05 0.0000000000000000e+00  -3.6697970531229514e-04 -2.5677093370728339e-04 0.0000000000000000e+00  -2.7851176538648235e-02 -2.4838740438193402e-01 0.0000000000000000e+00  5.1998518309268056e-02 3.9514291631911180e-01 0.0000000000000000e+00  1.4750854761339825e-02 4.6546391483204230e-01 0.0000000000000000e+00  -9.1048824062268802e-02 8.6732215973622895e-01 0.0000000000000000e+00  -1.6408486896654612e-02 8.0772637847361897e-02 0.0000000000000000e+00  -1.4535465851296364e-02 2.3226136506828030e-01 0.0000000000000000e+00  5.1149014961507861e-03 5.1535646698322923e-01 0.0000000000000000e+00  1.1933795736496977e-03 5.4426982291021486e-01 0.0000000000000000e+00  -2.3645775354838770e-02 3.0379728423515212e-01 0.0000000000000000e+00  2.0376701256962167e-02 -3.9465576026579280e-01 0.0000000000000000e+00  1.3065965759978965e-01 6.3956817494108642e-01 0.0000000000000000e+00  1.1488757969941629e-01 3.4500179110590656e-01 0.0000000000000000e+00  2.7335495101627100e-01 7.3326055356576902e-01 0.0000000000000000e+00  1.3359759374595452e-02 2.7264934796196671e-01 0.0000000000000000e+00  -1.6303559129509226e-01 -3.5440837685504462e-01 0.0000000000000000e+00  1.8080434887545294e-02 -4.4441373418836672e-01 0.0000000000000000e+00  3.2215379188266467e-03 5.6550342059621639e-01 0.0000000000000000e+00  -1.3329871691489276e-02 2.7724264337439064e-01 0.0000000000000000e+00  5.1057659448922946e-03 3.6846906352240627e-01 0.0000000000000000e+00  2.7432892180858042e-05 -1.7391656454053423e-04 0.0000000000000000e+00  -3.8867727534181467e-06 2.1257144253333559e-05 0.0000000000000000e+00  1.7884358604428677e-03 -2.0627292929923632e-01 0.0000000000000000e+00  3.1141800618957046e-02 2.0167398944120274e-01 0.0000000000000000e+00  -2.6070292575336800e-03 -1.2698287452427269e-03 0.0000000000000000e+00  -3.0907256176551018e-01 2.6381987001385132e-01 0.0000000000000000e+00  -1.2165352589014430e-02 5.9865637122775794e-01 0.0000000000000000e+00  6.0414134934309669e-03 8.4395551123410989e-02 0.0000000000000000e+00  1.2396693533410280e-02 -3.7685060272534188e-01 0.0000000000000000e+00  -8.6318960039857451e-02 -1.0447074990917807e-01 0.0000000000000000e+00  -3.9711107287006167e-04 4.2046707455762889e-04 0.0000000000000000e+00  2.1596829270769835e-05 -2.1852189057608147e-04 0.0000000000000000e+00  -3.9671062231779724e-03 5.1980746331654393e-01 0.0000000000000000e+00  2.9440844394639690e-02 2.0997699403254932e-01 0.0000000000000000e+00  -4.7819052398319972e-06 2.8876812101913731e-05 0.0000000000000000e+00  7.5876734901715228e-03 -5.2782749126711459e-01 0.0000000000000000e+00  1.0338126781886746e-02 -4.3803513124398974e-01 0.0000000000000000e+00  9.0943618655981336e-03 -4.1058246415680150e-01 0.0000000000000000e+00  -5.9935000053390431e-04 -3.8573272505110375e-04 0.0000000000000000e+00  -7.4852203847447802e-03 -1.9097220668428794e-01 0.0000000000000000e+00  -5.2617873940301242e-02 5.6849824146669137e-01 0.0000000000000000e+00  1.7787451561986221e-02 3.5299726788418956e-01 0.0000000000000000e+00  2.4106436417281274e-02 4.4864901186444767e-01 0.0000000000000000e+00  -3.7507580119937750e-05 -2.1259954804240771e-04 0.0000000000000000e+00  -6.8401306380144805e-03 -4.9365953241266791e-01 0.0000000000000000e+00  1.3476629633123776e-02 -1.7033626086551665e-01 0.0000000000000000e+00  2.9144362485476468e-06 1.8611732634136848e-05 0.0000000000000000e+00  9.4063116948494008e-03 -2.3305553894545677e-01 0.0000000000000000e+00  -3.9215200209803687e-02 -4.4956995387152765e-01 0.0000000000000000e+00  2.2715482728754545e-02 -4.4545319948805923e-01 0.0000000000000000e+00  -4.6572786266576724e-02 -6.3093695195381549e-02 0.0000000000000000e+00  -3.7725414537827615e-02 -2.3035519737258370e-01 0.0000000000000000e+00  -1.1183351732939715e-02 -5.2131498963154577e-01 0.0000000000000000e+00  -2.2692148288482811e-03 -1.6868720114513586e-01 0.0000000000000000e+00  -3.0854070488861508e-03 -5.1801312395101051e-01 0.0000000000000000e+00  -1.2968599545447091e-02 -5.0729107875680679e-01 0.0000000000000000e+00  1.2282870345315632e-03 -5.0683703219460835e-05 0.0000000000000000e+00  4.5574889509580820e-04 -2.6039329613283308e-04 0.0000000000000000e+00  1.1611315024804988e-02 8.7135540630620190e-01 0.0000000000000000e+00  8.1381116383626467e-02 -3.6174160134584082e-01 0.0000000000000000e+00  2.1148672627913374e-02 -2.0358285332251789e-02 0.0000000000000000e+00  6.1476835057389233e-02 -1.5507959792199175e-01 0.0000000000000000e+00  2.1224426161862955e-02 -1.2664555078699005e-01 0.0000000000000000e+00  2.9015954878507463e-04 -4.0239856841036532e-04 0.0000000000000000e+00  7.3812247385381384e-04 -1.7149898707245922e-05 0.0000000000000000e+00  3.9995011446495790e-04 -4.7588946865278141e-04 0.0000000000000000e+00  -1.1380254098875457e-04 -5.1376692141773295e-05 0.0000000000000000e+00  2.8026583714630754e-05 1.4030683001151607e-04 0.0000000000000000e+00  -3.9022034964118920e-04 -4.3018136391790158e-04 0.0000000000000000e+00  4.2285656660221007e-04 3.7541034933379086e-04 0.0000000000000000e+00  -3.4920359120325532e-02 -3.7870985818596176e-01 0.0000000000000000e+00  8.4236597278400816e-03 5.0439414888083944e-01 0.0000000000000000e+00  -4.4431621923967400e-02 4.7834806126438714e-02 0.0000000000000000e+00  -3.7069977887734229e-03 -4.0678886746702736e-01 0.0000000000000000e+00  2.6795938491063945e-02 6.3916076650717768e-01 0.0000000000000000e+00  -3.7419134997540453e-02 -3.7223127487658969e-01 0.0000000000000000e+00  -8.7923939224928749e-02 -2.8450221872972165e-01 0.0000000000000000e+00  -1.9405473454826325e-01 -1.3076000908078472e-01 0.0000000000000000e+00  -2.8071049452072939e-02 5.1676609639955562e-01 0.0000000000000000e+00  3.0088802516573363e-03 -4.9779725897033550e-01 0.0000000000000000e+00  -5.2670202319343648e-02 -1.0300043264226302e-01 0.0000000000000000e+00  4.7395232410835875e-02 -2.9156010058612897e-01 0.0000000000000000e+00  -2.5061714705449160e-02 3.3548227961375021e-01 0.0000000000000000e+00  -1.5738360332420531e-01 4.7464668915539526e-01 0.0000000000000000e+00  6.9765877943829416e-03 1.2157146277744116e-01 0.0000000000000000e+00  -1.2536140112613827e-02 1.9203030633242085e-01 0.0000000000000000e+00  -1.1976783972540839e-02 2.5511919519840737e-01 0.0000000000000000e+00  2.1360341167877067e-01 -3.7268662538277858e-01 0.0000000000000000e+00  1.5407278155587156e-01 -3.3754822965951103e-01 0.0000000000000000e+00  1.4643322040522794e-01 5.5772993423682160e-01 0.0000000000000000e+00  -9.6452733388993888e-03 1.5419273595232877e-01 0.0000000000000000e+00  6.3981324102762235e-02 8.0540259496201375e-02 0.0000000000000000e+00  -1.8469197212440457e-02 -3.0652158391453699e-01 0.0000000000000000e+00  2.3944004644926406e-03 -5.7097690064706741e-01 0.0000000000000000e+00  3.8911539389172361e-03 -5.3368143602529194e-01 0.0000000000000000e+00  1.2153389793355550e-02 1.0169443868149919e-01 0.0000000000000000e+00  -6.0873982232790441e-04 -2.4874610363833016e-01 0.0000000000000000e+00  -8.8547514695453255e-03 5.2367723667816990e-01 0.0000000000000000e+00  8.6682308551181489e-03 4.5294104866360080e-01 0.0000000000000000e+00  7.2919762387686239e-04 -5.4868602671177502e-01 0.0000000000000000e+00  2.8331098758077770e-02 -2.3309179564383101e-01 0.0000000000000000e+00  -1.0934035779898019e-02 3.5021532725394838e-01 0.0000000000000000e+00  5.1739737063856593e-03 -4.6889391716380818e-01 0.0000000000000000e+00  -6.8055122444800921e-03 1.5879377702931655e-01 0.0000000000000000e+00  -2.2443147168819094e-02 5.4030314220393583e-01 0.0000000000000000e+00  -4.8853700058504087e-03 -4.1465916284189264e-01 0.0000000000000000e+00  1.4295588136662247e-02 -4.3070054734665369e-01 0.0000000000000000e+00  -1.2439788274811793e-02 -3.6086769514420586e-01 0.0000000000000000e+00  3.9683946680801933e-02 7.1501504780979919e-01 0.0000000000000000e+00  2.2660100920047860e-01 -1.2044938108466717e-01 0.0000000000000000e+00  3.5445556434023096e-01 5.9611153175397857e-01 0.0000000000000000e+00  3.0260811784060586e-02 -2.0196105811385354e-01 0.0000000000000000e+00  4.1094855693771290e-02 -9.2721091944530126e-02 0.0000000000000000e+00  -1.7809169676685216e-01 8.1600237055855640e-01 0.0000000000000000e+00  -5.3918226349162716e-03 5.3259561853603765e-01 0.0000000000000000e+00  4.1490582222886097e-01 -2.2959893820407387e-01 0.0000000000000000e+00  1.2016929430802353e-02 1.7632105503940931e-01 0.0000000000000000e+00  -1.7710510623144441e-02 -3.1224114407713499e-01 0.0000000000000000e+00  -3.6657736703504095e-03 -3.5209203648916088e-01 0.0000000000000000e+00  -4.5164961459909775e-01 1.9079019370609174e-01 0.0000000000000000e+00  -2.3272034073809920e-02 -3.0234666180392150e-01 0.0000000000000000e+00  -2.7765665246895818e-02 1.6705501708990447e-01 0.0000000000000000e+00  7.1417599558573665e-03 6.4890022355803767e-01 0.0000000000000000e+00  8.4007041046897601e-02 -3.5294693778475245e-01 0.0000000000000000e+00  5.3500034401079040e-02 2.1339613819712988e-01 0.0000000000000000e+00  -1.1314358936822007e-02 -5.0344276466832194e-01 0.0000000000000000e+00  3.0480571616914948e-02 -5.0890398151518534e-01 0.0000000000000000e+00  1.0325392247233743e-01 6.9056240936587387e-01 0.0000000000000000e+00  -9.5538460415221182e-02 6.7240168599682215e-01 0.0000000000000000e+00  -2.5355402483205763e-01 3.2322592527841981e-01 0.0000000000000000e+00  4.0595696518932727e-03 -5.2554265393045374e-01 0.0000000000000000e+00  4.9685217682621432e-03 5.6591388419678645e-01 0.0000000000000000e+00  2.2675365893638816e-03 -1.3800178467638921e-01 0.0000000000000000e+00  -1.3060127007776288e-02 -4.3090388735181673e-01 0.0000000000000000e+00  4.1911960367937255e-03 5.0332453490615869e-01 0.0000000000000000e+00  -1.9407477974732128e-02 2.0633440888241192e-01 0.0000000000000000e+00  -2.2394718414334932e-02 -1.6424651194685136e-01 0.0000000000000000e+00  7.4922480483822218e-03 5.3639783976933353e-01 0.0000000000000000e+00  4.7424144778746707e-04 4.4128569581308095e-04 0.0000000000000000e+00  6.2766924056100196e-02 -1.0958578427038602e-01 0.0000000000000000e+00  -4.9954652304717278e-03 4.1390166576429160e-01 0.0000000000000000e+00  2.6795165075624246e-02 -1.2961983893771331e-01 0.0000000000000000e+00  9.9483413258209565e-03 1.8823900055044973e-01 0.0000000000000000e+00  -4.9923930217877508e-05 1.3379287132509306e-04 0.0000000000000000e+00  1.4450530907372066e-02 -5.2928609946626470e-01 0.0000000000000000e+00  3.7072991157097133e-03 -5.4125066063440086e-01 0.0000000000000000e+00  -1.6103696373305824e-02 7.3458065230417291e-01 0.0000000000000000e+00  2.1779823085443316e-02 5.3221407863359516e-01 0.0000000000000000e+00  1.4509478080473355e-02 4.8503454271036223e-01 0.0000000000000000e+00  1.6998492453446118e-02 -5.4242817378493113e-01 0.0000000000000000e+00  1.5805481428211567e-02 -4.1851645947023974e-01 0.0000000000000000e+00  1.3119616132213631e-02 5.3201261967700386e-01 0.0000000000000000e+00  2.0726478052045586e-02 2.3021372901566653e-01 0.0000000000000000e+00  -4.7732087349930327e-02 -5.4174602510277538e-02 0.0000000000000000e+00  -8.4410909920016152e-06 2.2070412404853238e-05 0.0000000000000000e+00  -4.3137526373016565e-03 -5.2461942299612452e-01 0.0000000000000000e+00  -4.9102479961252610e-04 4.4120245286147480e-04 0.0000000000000000e+00  -4.1558537874640420e-03 4.5833914818554683e-01 0.0000000000000000e+00  3.0796291362150743e-02 -3.4752335578130217e-01 0.0000000000000000e+00  2.0615262541348694e-02 3.8605853640641113e-01 0.0000000000000000e+00  -6.2454928244713506e-02 1.0365072615465350e-01 0.0000000000000000e+00  -9.3456473657951733e-02 -3.3953717018231638e-01 0.0000000000000000e+00  -2.9720771347175119e-03 -3.5268254197903988e-04 0.0000000000000000e+00  -1.4232870077257128e-02 -2.5697961923256007e-01 0.0000000000000000e+00  -1.4436738566741099e-04 -2.1125575542145358e-01 0.0000000000000000e+00  9.5010306821146032e-03 1.7931825079961858e-01 0.0000000000000000e+00  1.5941082069278708e-03 -6.5301122162763660e-05 0.0000000000000000e+00  7.0998197963114823e-02 3.6100917160248958e-01 0.0000000000000000e+00  6.4243934741488873e-02 4.8262657717671126e-01 0.0000000000000000e+00  1.3263946758985978e-04 -6.7953714046576578e-05 0.0000000000000000e+00  -2.9971052377052670e-01 3.4642139270073563e-02 0.0000000000000000e+00  -4.3519735555893518e-01 -9.3193899578646169e-02 0.0000000000000000e+00  -6.3040655625217726e-02 -1.5040802832840172e-01 0.0000000000000000e+00  1.9527811367020600e-01 2.4577015017693116e-01 0.0000000000000000e+00  1.2011932020866952e-02 1.9428819021313840e-02 0.0000000000000000e+00  1.1817097874032432e-02 4.8741931395909255e-01 0.0000000000000000e+00  -1.8055101076053667e-02 1.3665534801881851e-01 0.0000000000000000e+00  2.4119239469723008e-02 -3.0073795749620669e-01 0.0000000000000000e+00  6.0305087967943261e-02 1.3446977340508878e-01 0.0000000000000000e+00  1.0536835350884201e-03 -4.6358620569756383e-06 0.0000000000000000e+00  -3.3873480874989793e-02 -3.9982155817366677e-01 0.0000000000000000e+00  4.4024316707220776e-05 1.5807053390007203e-04 0.0000000000000000e+00  -6.7455822815910291e-03 -7.9102328168711419e-02 0.0000000000000000e+00  -1.5695166742153252e-02 -4.7959698747846918e-01 0.0000000000000000e+00  -3.3487409155423212e-02 5.1011442790660977e-01 0.0000000000000000e+00  8.2372438641714184e-04 -1.0633528124646659e-05 0.0000000000000000e+00  1.5970569223648981e-01 5.3102135206722162e-02 0.0000000000000000e+00  -8.7683931885440269e-03 2.3278570622677852e-01 0.0000000000000000e+00  1.5023723492778045e-02 -5.0166688171710205e-01 0.0000000000000000e+00  -3.7441856383940472e-02 -3.9650896243538608e-01 0.0000000000000000e+00  -1.0745184497581724e-01 4.0852767683632990e-01 0.0000000000000000e+00  1.0575095314753714e-02 -4.1703140625925689e-01 0.0000000000000000e+00  -2.5950378318323739e-02 5.1182429667070384e-01 0.0000000000000000e+00  -2.0019265341685275e-02 4.9361868408968967e-01 0.0000000000000000e+00  4.4993381975276706e-02 1.1256972096268945e-01 0.0000000000000000e+00  -3.6521972762262038e-02 4.8242535772588757e-01 0.0000000000000000e+00  5.6982661046699138e-03 5.1363478511135718e-01 0.0000000000000000e+00  6.5045005584796799e-03 4.1709147505298812e-02 0.0000000000000000e+00  1.3891572268624299e-02 -5.4239241604773625e-01 0.0000000000000000e+00  -4.3312109050540649e-02 4.1961993283135995e-01 0.0000000000000000e+00  2.4404224948062086e-02 -4.6588818255712450e-01 0.0000000000000000e+00  3.2000084163982111e-05 -2.3763119465843878e-04 0.0000000000000000e+00  4.9498384097675365e-03 -3.3516773439587333e-01 0.0000000000000000e+00  8.4466681408506022e-02 2.9473957780529719e-01 0.0000000000000000e+00  -2.5875611556290441e-02 -1.6139020377006769e-01 0.0000000000000000e+00  2.7596134394868233e-04 3.9441212064161818e-01 0.0000000000000000e+00  -7.8821044212457406e-02 9.4191921132629086e-02 0.0000000000000000e+00  1.3880936248827899e-02 6.7697346692124627e-02 0.0000000000000000e+00  -1.4668288624278486e-02 1.3524463102220696e-01 0.0000000000000000e+00  4.3666827420866481e-04 3.7789049778193430e-04 