<?xml version="1.0"?>
<VTKFile type="UnstructuredGrid"  version="0.1"  >
<UnstructuredGrid>
<Piece  NumberOfPoints="5185" NumberOfCells="10070">
<Points>
<DataArray  type="Float64"  NumberOfComponents="3"  format="ascii">0 1.5 0  0 0 0  0.1232405621108402 0 0  0.1232405621108402 0.02253860454731437 0  0.1476111412843772 0.06045996594834066 0  0.1886148129381372 0.07918571535047463 0  0.2332332010401509 0.07277055962836147 0  0.2673002826264945 0.0432512653964478 0  0.28 0 0  0.5342215165449864 0 0  0.5342215165449864 0.02394141003279682 0  0.5649999999999999 0.06062177826491071 0  0.6121553724366851 0.06893654271085457 0  0.6536231110183285 0.04499513267805775 0  0.6699999999999999 0 0  0.91 0 0  0.9220577136594005 0.04499999999999999 0  0.9550000000000001 0.07794228634059948 0  1 0.09 0  1.045 0.07794228634059946 0  1.077942286340599 0.04499999999999999 0  1.09 0 0  1.52324056211084 0 0  1.52324056211084 0.02253860454731437 0  1.547611141284377 0.06045996594834066 0  1.588614812938137 0.07918571535047463 0  1.633233201040151 0.07277055962836147 0  1.667300282626495 0.0432512653964478 0  1.68 0 0  1.84 0 0  1.857573593128807 0.04242640687119285 0  1.9 0.06 0  1.942426406871193 0.04242640687119285 0  1.96 0 0  2.22324056211084 0 0  2.22324056211084 0.02253860454731437 0  2.247611141284377 0.06045996594834066 0  2.288614812938137 0.07918571535047463 0  2.333233201040151 0.07277055962836147 0  2.367300282626494 0.0432512653964478 0  2.38 0 0  2.534221516544986 0 0  2.534221516544986 0.02394141003279682 0  2.565 0.06062177826491071 0  2.612155372436685 0.06893654271085457 0  2.653623111018328 0.04499513267805775 0  2.67 0 0  3 0 0  3 1.5 0  0 0.75 0  1.5 1.5 0  0 0.375 0  0.75 1.5 0  2.25 1.5 0  3 0.75 0  1.216228490499689 0.8069757125887627 0  1.965682393638027 0.8065702515463131 0  0.6025408912810675 0.8974591087189325 0  2.494676348647751 0.9946763486477508 0  2.356709259621435 0.5447946099875809 0  0.8599642199210003 0.5226206461323684 0  0.4216394361293908 0.4974105777134379 0  0.375 1.5 0  0 1.125 0  1.875 1.5 0  1.591091407334617 1.058091082812092 0  1.125 1.5 0  1.590810830624645 0.5394732912049653 0  0.9375 1.13479915923725 0  3 0.375 0  3 1.125 0  2.625 1.5 0  1.995245765771775 0.4277948434396763 0  2.145880954246818 1.137688199332401 0  1.227783477957362 0.427141979786574 0  2.705436295205127 0.5625 0  1.268702849688826 1.133996222613609 0  0.3526676910824388 1.147332308917561 0  0.3097907151415997 0.7889144057821572 0  0.903221947180751 0.828141240074398 0  0.6461527570085278 1.190944174645022 0  2.258488242757536 0.8210127920483788 0  2.400058919161888 1.260760484185309 0  2.778889354513028 0.9375 0  2.725079155390203 1.225079155390203 0  1.853608154101008 1.201589046866999 0  2.540576981905353 0.3370046821869876 0  0.7811555507088518 0.2732832036972447 0  1.493222576519009 0.798835058995101 0  1.747409300790817 0.3184283662481822 0  1.459899526511598 0.3067772450698331 0  0.1875 1.5 0  0 0.5625 0  2.521594883841638 0.7403247928378012 0  0.2438476629309629 0.32244155773108 0  3 0.1875 0  2.776470677837637 0.28125 0  2.121241022911138 0.6281701698960991 0  1.728545483402697 0.8581016441191361 0  1.012422318322288 0.3271268474523591 0  2.305755967143385 0.3144626442661202 0  1.30662028105542 0 0  1.6875 1.5 0  1.8265892939935 0.6051726401583923 0  0.5458598773451642 0.2962606377138959 0  0 0.9375 0  1.349377516922966 0.6209336375388498 0  1.079656249611334 0.612728400373996 0  0.7151087041654347 0.6989529576230681 0  2.0625 1.5 0  1.59375 1.288981971791887 0  2.085107439753329 0.2191742438537923 0  0.6402689932842839 0.4934943541428904 0  1.228474271256239 0.2064231070567615 0  1.3125 1.5 0  1.06968030723948 0.9647793670181679 0  0.2113350105157037 0.5332932754427466 0  0 1.3125 0  0.5051540211699285 0.7110632261327643 0  0.4775171365050886 1.316467280173536 0  1.967112413780365 1.020384154410382 0  0.8191736043349165 1.304781661824189 0  1.103455205015878 1.280328263155604 0  0.7649318329201844 1.023310716596371 0  0.2120544860962804 0.9823800432730223 0  1.359100570345391 0.9517705003379791 0  0.1711043107784345 1.21875 0  3 1.3125 0  2.8125 1.5 0  2.714178691455841 0.7554813872281284 0  2.217815962767571 1.313132398873298 0  2.020480176543968 1.307095379623413 0  2.29875620117699 1.013690599387144 0  0.3848285295772316 0.1937040883803935 0  0.9375 1.5 0  3 0.9375 0  2.4375 1.5 0  3 0.5625 0  0 0.1875 0  0.5625 1.5 0  2.835 0 0  1.386383673099448 1.305536509588035 0  1.773513842966063 1.0362399691084 0  2.179843036592861 0.4515211056338026 0  0.4134910794700652 0.9582824971065591 0  2.107214813096467 0.9125353945687058 0  1.916698009609654 0.2702971158297667 0  2.533006985360663 0.5155509623987015 0  2.838574938309606 0.4465309273225452 0  0.3016597101560133 1.338635596991575 0  1.641573393474498 0.7066136805426366 0  2.855238878880983 0.65625 0  1.398074618385877 0.1459865472102536 0  1.756539173374812 1.342993235461221 0  2.434593137832078 0.2067018044975929 0  1.434366740555482 0.4743139981449843 0  1.440742946818836 1.142108619191562 0  0.549043549720087 1.055391704395 0  2.571565919072277 1.32487216700893 0  2.535776521770127 1.159155922815097 0  2.652193336606067 1.04269083214613 0  0.660031172970541 1.35825582857438 0  2.607645482283307 0.8780318994093907 0  1.09590027081365 1.121554905778777 0  0.1474979543625655 0.8283466240195498 0  1.056776372361757 0.7739494406659941 0  0.3647560414155882 0.6427945145874604 0  1.699724067482516 1.17405657891935 0  0.913786173488833 0.9822051271795349 0  0.9283491691592597 0.66876089182342 0  0.7498959802087029 0.8498501951910959 0  0.3951228082283652 0.3465404522808934 0  1.23887612906836 1.360760366473919 0  0.1206420558503055 0.65625 0  1.735537276557186 0.4760109437618505 0  1.799297742536812 0.1791526413061006 0  1.970987958006469 0.6541756362249113 0  1.080810552147559 0.461742062484039 0  2.268149337929528 0.6688757993926466 0  2.413602460817152 0.8574959373397593 0  2.833998248858927 1.096635576389 0  2.71875 1.378451438260757 0  2.001906612723158 1.162230131308666 0  2.859452984352005 0.8083820929207302 0  2.688478120768856 0.4086214703657035 0  1.214106348747711 0.9519545202622776 0  2.850368184690094 1.307066142740315 0  1.864893983840636 0.9141560734025058 0  1.60661446108863 0.2395589708587393 0  1.61163060570479 0.3901968276506504 0  2.771867619212225 0.1335769833684914 0  0.7969119039620236 1.163109784140262 0  0.9599416701963486 1.276596315583475 0  2.103624150445193 0.7698297553089299 0  2.279721363034605 1.185280797873663 0  2.34375 1.392122382816539 0  0.1382307077648764 1.361769292235123 0  0.1426478344893104 0.2175212356047023 0  2.406413880432258 1.104106228251116 0  2.414971181397263 0.4111042519521358 0  2.637277274673136 0.2192348292007474 0  1.353600469573883 0.7646239317376279 0  1.494012125944227 0.651091825511382 0  1.590274899157226 0.9102986199774393 0  1.028633500752755 1.396325660524358 0  1.829615743479497 0.7518128394998403 0  1.861059000344659 0.3963812297683985 0  0.510900777690535 1.185277566959035 0  1.213080286311768 0.6640546084318578 0  0.79 0 0  0.8167897395818556 0.1376517357725223 0  0.9319739747594649 0.2144569310211157 0  1.889188139713804 1.330032757791382 0  0.655714683266079 0.2049689967103183 0  2.09162028105542 0 0  0.1359367774292784 0.4137345801986589 0  0.4380798275211911 0.8267965724704243 0  2.40400705830434 0.6721965963037969 0  0.3027633520173528 0.4394586980387968 0  0.8782788855287165 0.379708545377904 0  0.7595213470930909 0.4371189613680841 0  1.317967779309324 0.3170637160852436 0  0.6053759621699666 0.6225641226781395 0  0.6530309552265516 0.3661735489900947 0  2.594089294631991 0.631328821944253 0  0 1.03125 0  0.1304283746114646 1.089970844689444 0  0.4071107582724932 0 0  1.469526282978338 1.017083854458662 0  1.088959023533499 0.2104112015424126 0  1.161808378403757 0.3165749773273478 0  2.172966779463329 0.3188379172988492 0  2.216343768168092 0.1920401700474863 0  3 0.09375 0  1.905024675365066 0.5108806275986008 0  1.702014103004408 0.5963171944847371 0  0.2428042557945101 0.6514309613450368 0  3 1.40625 0  0.262372466757009 0.191725613649506 0  2.116791485436391 1.387145016777417 0  1.96875 1.5 0  2.885528053432104 0.3345800153572822 0  2.875601419873791 0.2042517854891826 0  2.298911783255236 0.4400662366556407 0  2.459247322083259 1.363881377923602 0  0.9735587139454543 0.5585353431007029 0  1.176315140569268 0.5379697839544898 0  2.0296370010214 0.5459700999805513 0  0.4987416453488727 0.4060939323248423 0  0.5397511702990104 0.1771676763212877 0  3 1.21875 0  2.238710633113112 0.5542203056099733 0  1.19831014052771 0 0  1.583962270593198 1.173633921912192 0  1.650563144166832 1.390075718520202 0  1.496025571730155 1.371899864460592 0  3 1.03125 0  2.887481932992674 0.9890041589451042 0  0.247836885460272 1.094286258989912 0  0.4719220056590702 0.6009044603312741 0  1.97565550452845 0.1615660574331665 0  2.131135530378305 0.1108580974478677 0  1.318642333542132 0.5051755928544708 0  1.217460132329928 1.242599824876711 0  1.511891312109549 0.1714963794002952 0  2.174601400318987 1.01685942781215 0  0.9082882406313817 1.384236564302014 0  0.6140422604397168 0.7728109899968187 0  0.8289359680247524 0.7347587321432018 0  0.741509926624258 0.5729763888559004 0  2.058356323822746 0.3313153147701495 0  0.4534336320756143 0.1034622594748756 0  1.40625 1.5 0  1.689084537897351 0.9628079283127213 0  1.156270839633873 0.1228556218721798 0  1.29033806179015 0.1118395069726669 0  1.460859151915469 0.9057320169622244 0  2.326558662668462 0.1831424028173474 0  0.9693052477371982 0.4460054238200853 0  0.6625304018229865 1.076650755704414 0  1.41493042158313 0 0  0.4485426513928407 1.096421738127594 0  0.2454589766548061 0.8778352103982039 0  0.1115239912906509 0.9339683416032414 0  1.134782462834443 0.8782884736059876 0  0.9999448991609674 1.04695529392896 0  0.9835215815673453 0.9000292002687431 0  2.53125 1.5 0  0.3175564878698739 1.010319294269645 0  1.971944763694389 0.9134401013848152 0  2.06
[...]
<PointData  Vectors="f_60"> 
<DataArray  type="Float64"  Name="f_60"  NumberOfComponents="3" format="ascii">-5.9459698696403517e-05 -4.0595495111475264e-04 0.0000000000000000e+00  1.2840394130657186e-04 1.0844408934024086e-04 0.0000000000000000e+00  7.3350362764195473e-04 1.0316473524003824e-03 0.0000000000000000e+00  2.1978418139004356e-05 8.3583646060264507e-04 0.0000000000000000e+00  -4.9949004121772683e-04 5.8128766555322602e-04 0.0000000000000000e+00  1.5488131317225503e-04 7.2554112123727392e-04 0.0000000000000000e+00  -4.0610871696749413e-04 7.5483275675324057e-04 0.0000000000000000e+00  -6.5964905800750169e-05 5.4470452616141079e-04 0.0000000000000000e+00  4.1216331031312530e-04 3.0391243142956800e-04 0.0000000000000000e+00  -2.8031838757586945e-04 4.4179253568983341e-04 0.0000000000000000e+00  2.3326519659527182e-04 7.4089018809903365e-04 0.0000000000000000e+00  -7.3669417448728107e-05 6.0960608267590405e-04 0.0000000000000000e+00  2.0126477178954353e-04 2.8081815759216984e-04 0.0000000000000000e+00  -1.2268340085281953e-04 6.7653264201351286e-04 0.0000000000000000e+00  1.1308912391798427e-04 4.5896774341890110e-04 0.0000000000000000e+00  -4.4627785329574349e-04 8.3486807872748862e-04 0.0000000000000000e+00  -3.8578275956694150e-04 8.2850742769036839e-04 0.0000000000000000e+00  2.3231019602996515e-05 7.9769283311073591e-04 0.0000000000000000e+00  -2.3217643898522646e-04 9.1983186486633162e-04 0.0000000000000000e+00  2.3627483386642808e-04 4.6686069013569136e-04 0.0000000000000000e+00  -4.5504454234230013e-04 7.9734303276886645e-04 0.0000000000000000e+00  -4.8017922000565265e-04 8.7295251171260564e-04 0.0000000000000000e+00  -4.2379843484350904e-04 1.5579195489232408e-04 0.0000000000000000e+00  -3.6210525462281149e-04 4.3416928291311674e-04 0.0000000000000000e+00  -6.3521170872020598e-05 8.6386606023517224e-04 0.0000000000000000e+00  -1.1173134600778935e-04 1.0501298271203892e-03 0.0000000000000000e+00  3.8427709195102441e-04 6.7972960221633768e-04 0.0000000000000000e+00  2.7593602820558105e-04 7.0379059075284381e-04 0.0000000000000000e+00  -2.3783324935155111e-04 1.0865767567750204e-03 0.0000000000000000e+00  1.4882371073670161e-04 1.9417217801372501e-04 0.0000000000000000e+00  4.3462967725172618e-04 4.4522616169760101e-04 0.0000000000000000e+00  -1.0940264502342799e-04 7.8777048604339436e-04 0.0000000000000000e+00  3.0696076784565956e-04 6.7458504516588124e-04 0.0000000000000000e+00  2.4736119928927647e-04 5.4022362317632190e-04 0.0000000000000000e+00  5.9933299732922078e-04 8.5882664576625658e-04 0.0000000000000000e+00  4.9290227657696330e-04 9.6684580260660772e-04 0.0000000000000000e+00  -1.1304328799482530e-04 5.9949351933909071e-04 0.0000000000000000e+00  1.7271992365593177e-04 7.0876900161043535e-04 0.0000000000000000e+00  -3.0555138881035087e-04 6.5018917790709294e-04 0.0000000000000000e+00  1.6862767496182807e-04 1.1460943326217954e-03 0.0000000000000000e+00  6.5692825843680601e-04 2.0665864422386588e-04 0.0000000000000000e+00  8.6583978034160923e-04 9.2110488008172425e-04 0.0000000000000000e+00  8.1317865079316904e-04 1.0440546718694145e-03 0.0000000000000000e+00  7.9585146835596629e-04 6.5781455830722451e-04 0.0000000000000000e+00  -1.8313777077058101e-04 2.1354820223459559e-05 0.0000000000000000e+00  -5.4157080452314386e-04 1.6580056181398442e-03 0.0000000000000000e+00  9.5383937550259186e-04 2.2688177090672131e-04 0.0000000000000000e+00  -1.5276771920732958e-02 -3.3430111683337522e-03 0.0000000000000000e+00  -9.2703825353078505e-04 2.5652320229735833e-05 0.0000000000000000e+00  -2.0613483016231298e-05 1.1338788905685753e-05 0.0000000000000000e+00  4.2569385331620289e-05 -7.0545196605124698e-04 0.0000000000000000e+00  1.0583801169725810e-05 3.4938107400090886e-05 0.0000000000000000e+00  3.4887737707041622e-04 -3.2155285679943187e-04 0.0000000000000000e+00  -2.0567962936770616e-05 -4.2177890766563009e-04 0.0000000000000000e+00  6.3675847618266336e-04 -7.8230874630045460e-05 0.0000000000000000e+00  2.8332586984507998e-03 1.3666000158239378e+00 0.0000000000000000e+00  2.0385202644267533e-02 -1.1452850144418807e+00 0.0000000000000000e+00  -8.6881792467067738e-03 1.3928453346287011e+00 0.0000000000000000e+00  2.2618754446388642e-01 8.8250742764251225e-02 0.0000000000000000e+00  -1.1265345379333419e-01 1.3305953578226875e+00 0.0000000000000000e+00  3.6706760976421796e-02 9.2544981200821486e-01 0.0000000000000000e+00  5.6830689229403972e-02 -1.1855783731895491e+00 0.0000000000000000e+00  3.5056196127636845e-04 -7.3910681536702282e-04 0.0000000000000000e+00  6.6632772360829137e-06 -2.0577460562653675e-05 0.0000000000000000e+00  1.9707618306153506e-04 -6.8806272567713115e-04 0.0000000000000000e+00  -5.4302502619312477e-03 -3.9952967169367920e-01 0.0000000000000000e+00  1.2390670301920827e-04 -6.7225881598346636e-04 0.0000000000000000e+00  4.5661495431247711e-03 -3.7745574638989415e-01 0.0000000000000000e+00  -5.8651561383538178e-02 9.8380585833002065e-01 0.0000000000000000e+00  -2.7597668585012257e-03 -5.1472563569262186e-04 0.0000000000000000e+00  1.5219929130893916e-03 -9.3275916272880137e-05 0.0000000000000000e+00  -7.5120349451932153e-05 -6.2934765418718721e-04 0.0000000000000000e+00  -7.2702965955304594e-02 -6.1602462279645875e-01 0.0000000000000000e+00  1.3268671222352169e-01 1.0769611484922625e+00 0.0000000000000000e+00  3.7115935130562064e-02 1.2188052095224156e+00 0.0000000000000000e+00  -2.1189157955155483e-01 2.2164543887658006e+00 0.0000000000000000e+00  -4.6054918704200351e-02 1.8697758586682026e-01 0.0000000000000000e+00  -4.2866757638399380e-02 5.8782091910189693e-01 0.0000000000000000e+00  1.0604762991515616e-02 1.3426967516305419e+00 0.0000000000000000e+00  -4.7567333763516004e-04 1.4142931223210558e+00 0.0000000000000000e+00  -6.7793420522718556e-02 7.6302247227453501e-01 0.0000000000000000e+00  4.1689087986664965e-02 -1.0349949484904859e+00 0.0000000000000000e+00  3.3395737707217371e-01 1.6591929866911908e+00 0.0000000000000000e+00  2.9516489672931634e-01 1.0202988042593522e+00 0.0000000000000000e+00  7.3252310287391409e-01 2.0291084536663884e+00 0.0000000000000000e+00  2.9889835523396708e-02 7.2132039552230953e-01 0.0000000000000000e+00  -4.4125538752329413e-01 -9.2368534503260047e-01 0.0000000000000000e+00  5.0441026869943943e-02 -1.1605858496589352e+00 0.0000000000000000e+00  7.8540140813498343e-03 1.4670706987669611e+00 0.0000000000000000e+00  -3.0506601101222122e-02 7.2808835723477694e-01 0.0000000000000000e+00  1.9693936861033660e-02 9.4727874987832772e-01 0.0000000000000000e+00  3.2460532348646689e-04 -5.6447523186206779e-04 0.0000000000000000e+00  -6.4782923374597398e-06 2.4041374867554931e-06 0.0000000000000000e+00  -1.6263874604954025e-02 -5.4116265698701149e-01 0.0000000000000000e+00  8.4487736497758523e-02 4.9062007234866523e-01 0.0000000000000000e+00  -8.8676166504693867e-03 -3.1693500098335997e-03 0.0000000000000000e+00  -8.2928456937347694e-01 3.0080287669768729e-01 0.0000000000000000e+00  -2.5023711210803941e-02 1.5419389742453022e+00 0.0000000000000000e+00  1.6545059853641776e-02 2.1044716501500088e-01 0.0000000000000000e+00  3.5153153762258763e-02 -9.6818248523705042e-01 0.0000000000000000e+00  -2.1835992438910304e-01 -1.7808630590979577e-01 0.0000000000000000e+00  -6.5472103180172156e-04 7.1899967049763778e-04 0.0000000000000000e+00  2.3308780004182368e-04 -6.5578509280717957e-04 0.0000000000000000e+00  -7.3492570491244186e-03 1.3425420484112249e+00 0.0000000000000000e+00  7.9556305144058384e-02 5.1425916907096225e-01 0.0000000000000000e+00  3.3623738715536990e-06 7.9986519608432141e-06 0.0000000000000000e+00  2.2614255761974487e-02 -1.3698928957155727e+00 0.0000000000000000e+00  2.9323416492360987e-02 -1.1438920991504447e+00 0.0000000000000000e+00  2.6088944707292974e-02 -1.0564776395199109e+00 0.0000000000000000e+00  -1.0322665303863490e-03 -6.2505348536777557e-04 0.0000000000000000e+00  -2.1334719703041925e-02 -5.1326027310488198e-01 0.0000000000000000e+00  -1.3277921723882988e-01 1.4889090801827995e+00 0.0000000000000000e+00  4.6461786003382327e-02 9.3438930506145934e-01 0.0000000000000000e+00  6.4269206442771232e-02 1.1862907092695616e+00 0.0000000000000000e+00  -3.3136284251413303e-04 -5.7242389935683029e-04 0.0000000000000000e+00  -1.5363079605286526e-02 -1.2776279904149590e+00 0.0000000000000000e+00  3.6983939318870999e-02 -4.5608460377482940e-01 0.0000000000000000e+00  4.7978463030735058e-05 -1.3129725905130772e-04 0.0000000000000000e+00  2.5965085501427031e-02 -6.1230039009954307e-01 0.0000000000000000e+00  -1.0461624374685134e-01 -1.1412603942796669e+00 0.0000000000000000e+00  5.5305034309201549e-02 -1.1717924488933293e+00 0.0000000000000000e+00  -1.2577795588854990e-01 -1.1485884445445461e-01 0.0000000000000000e+00  -9.9859253443290372e-02 -5.5907301719026969e-01 0.0000000000000000e+00  -2.6789475920695308e-02 -1.3477680522506577e+00 0.0000000000000000e+00  -7.1446107066785378e-03 -4.3008627016876610e-01 0.0000000000000000e+00  -5.9786558602483997e-03 -1.3448168455190157e+00 0.0000000000000000e+00  -3.3860446291089731e-02 -1.2998065668673073e+00 0.0000000000000000e+00  1.1336457023114743e-03 3.9053947589719857e-04 0.0000000000000000e+00  1.9801019163224079e-03 -9.1369497902883158e-04 0.0000000000000000e+00  5.8203850265320760e-02 2.2547290462275216e+00 0.0000000000000000e+00  2.0718544952595092e-01 -8.9453287311216823e-01 0.0000000000000000e+00  4.8463443807404839e-02 -8.6902690592595699e-02 0.0000000000000000e+00  1.5603269244137774e-01 -4.7523765060127071e-01 0.0000000000000000e+00  6.1358027676097854e-02 -2.8560305240099876e-01 0.0000000000000000e+00  4.6066089678612924e-04 -6.9096078293890643e-04 0.0000000000000000e+00  1.2252092033398915e-03 -3.6388118297410338e-05 0.0000000000000000e+00  8.4245145150455220e-04 -9.3062227819999796e-04 0.0000000000000000e+00  -5.8764669189449508e-04 -1.8916703769527522e-04 0.0000000000000000e+00  6.2246031759466801e-05 2.3143749019704317e-04 0.0000000000000000e+00  -6.0104448056246928e-04 -7.1548270657364533e-04 0.0000000000000000e+00  1.8571167722940473e-03 4.9284507269823274e-04 0.0000000000000000e+00  -8.9911172598951150e-02 -9.5876650007664799e-01 0.0000000000000000e+00  2.0317357862811025e-02 1.3069806721487429e+00 0.0000000000000000e+00  -1.1589782343071199e-01 6.7806292463022305e-02 0.0000000000000000e+00  -8.1857358379638593e-03 -1.0563301160951948e+00 0.0000000000000000e+00  7.2925738017048408e-02 1.6631485571291869e+00 0.0000000000000000e+00  -9.8376109487353591e-02 -9.8668768415205443e-01 0.0000000000000000e+00  -2.5124918242783345e-01 -7.6656057535007815e-01 0.0000000000000000e+00  -5.5111454983281605e-01 -3.5618462759380298e-01 0.0000000000000000e+00  -8.3909493516269501e-02 1.3293368002587873e+00 0.0000000000000000e+00  7.9698275396593594e-03 -1.2932529644992758e+00 0.0000000000000000e+00  -1.7657268169141582e-01 -2.5365456374795187e-01 0.0000000000000000e+00  1.3454775145888784e-01 -7.7657090490568148e-01 0.0000000000000000e+00  -7.5973289693862675e-02 8.7709544716920251e-01 0.0000000000000000e+00  -3.9827683079589082e-01 1.0787941781477550e+00 0.0000000000000000e+00  2.2280389760726237e-02 3.0474814505755876e-01 0.0000000000000000e+00  -3.5688064930655669e-02 5.1323336243962381e-01 0.0000000000000000e+00  -3.5816156640915114e-02 6.7739889642585727e-01 0.0000000000000000e+00  5.4242607380826235e-01 -1.0838608813928381e+00 0.0000000000000000e+00  3.8594359930413025e-01 -8.3200558453680462e-01 0.0000000000000000e+00  3.9688326039709593e-01 1.2884403649441916e+00 0.0000000000000000e+00  -2.1826194971188286e-02 3.6305363114829176e-01 0.0000000000000000e+00  1.6109471620153143e-01 1.2924815601548256e-01 0.0000000000000000e+00  -4.8186856118909001e-02 -7.7629627793478195e-01 0.0000000000000000e+00  7.4180207596078740e-03 -1.4799319973871425e+00 0.0000000000000000e+00  1.3188654623202525e-02 -1.3855945155852500e+00 0.0000000000000000e+00  3.1770915349498954e-02 2.8191511159607963e-01 0.0000000000000000e+00  -2.8124346654211365e-03 -6.4662163645475412e-01 0.0000000000000000e+00  -2.8389538458504896e-02 1.3569843127234285e+00 0.0000000000000000e+00  2.1487032272603877e-02 1.1817236093291272e+00 0.0000000000000000e+00  5.0290285567413653e-03 -1.4231154993434656e+00 0.0000000000000000e+00  7.7925292196951920e-02 -5.6678187211720799e-01 0.0000000000000000e+00  -2.9731290234168463e-02 8.7608782900044624e-01 0.0000000000000000e+00  1.5738687723458537e-02 -1.2098624221304020e+00 0.0000000000000000e+00  -1.3783369375764749e-02 4.1568741065949394e-01 0.0000000000000000e+00  -6.0459671542734059e-02 1.3959213171052391e+00 0.0000000000000000e+00  -1.4833213931539619e-02 -1.0770752848949332e+00 0.0000000000000000e+00  3.9081240751767499e-02 -1.1288926499672243e+00 0.0000000000000000e+00  -3.9181487333271904e-02 -9.3492495898045380e-01 0.0000000000000000e+00  1.1719537995077389e-01 1.8706281741088508e+00 0.0000000000000000e+00  5.5451850567666239e-01 -2.1258008570796114e-01 0.0000000000000000e+00  8.9126221818269880e-01 1.6206150545629121e+00 0.0000000000000000e+00  7.6022081322605004e-02 -5.6152797130497911e-01 0.0000000000000000e+00  7.2964088135890670e-02 -2.5265295275869953e-01 0.0000000000000000e+00  -4.3038875478920735e-01 2.1107404727909884e+00 0.0000000000000000e+00  -1.8031408854127892e-02 1.3811445489147516e+00 0.0000000000000000e+00  1.0423623951732734e+00 -5.4269873872594510e-01 0.0000000000000000e+00  2.8781412042468427e-02 4.6876395869361365e-01 0.0000000000000000e+00  -4.6173769217780783e-02 -8.1696555085576161e-01 0.0000000000000000e+00  -8.5042445483734415e-03 -9.1683409436358032e-01 0.0000000000000000e+00  -1.1737541341518991e+00 2.7083166446661925e-02 0.0000000000000000e+00  -6.0548752175444670e-02 -7.5791319702647153e-01 0.0000000000000000e+00  -7.5737010828062154e-02 3.9455431221550608e-01 0.0000000000000000e+00  2.7138830307031989e-02 1.6829160021158869e+00 0.0000000000000000e+00  2.0951238089179172e-01 -9.8623025709619072e-01 0.0000000000000000e+00  1.0108657859447143e-01 4.5896699804156033e-01 0.0000000000000000e+00  -3.7869880663992189e-02 -1.3059993442565243e+00 0.0000000000000000e+00  8.8389185584299840e-02 -1.3028743699816698e+00 0.0000000000000000e+00  2.7657686447391450e-01 1.8110922986225924e+00 0.0000000000000000e+00  -2.3538006653142515e-01 1.6804514069124621e+00 0.0000000000000000e+00  -6.4034260125425579e-01 1.0886711396527973e+00 0.0000000000000000e+00  1.2849011129615383e-02 -1.3648731030220702e+00 0.0000000000000000e+00  1.3626161601138942e-02 1.4675677408458703e+00 0.0000000000000000e+00  5.0338998321702126e-03 -3.5829511795244628e-01 0.0000000000000000e+00  -4.8620976821922901e-02 -1.1379959222872040e+00 0.0000000000000000e+00  1.1951622336549601e-02 1.3060671048724686e+00 0.0000000000000000e+00  -4.9528625103345672e-02 5.0819235112158234e-01 0.0000000000000000e+00  -6.1137402072644773e-02 -3.9619658898375204e-01 0.0000000000000000e+00  1.8229485820403249e-02 1.3945214129889096e+00 0.0000000000000000e+00  7.0544394209911935e-04 6.9964737954967941e-04 0.0000000000000000e+00  1.7478874948694773e-01 -3.1913808323839810e-01 0.0000000000000000e+00  -1.5947153656707649e-02 1.0815699502304572e+00 0.0000000000000000e+00  7.1542081856984366e-02 -3.2288661224175469e-01 0.0000000000000000e+00  3.0084402109525649e-02 5.1126400627232083e-01 0.0000000000000000e+00  -1.5131603722139624e-04 4.8301388210298583e-04 0.0000000000000000e+00  4.3752044833371619e-02 -1.3677426291339856e+00 0.0000000000000000e+00  1.2533163597681217e-02 -1.4014736383088455e+00 0.0000000000000000e+00  -2.6574188997605691e-02 1.8945756233209137e+00 0.0000000000000000e+00  5.4457981613896221e-02 1.3883171514494945e+00 0.0000000000000000e+00  4.1866756529445374e-02 1.2522025425142094e+00 0.0000000000000000e+00  4.7549393753792774e-02 -1.4085259350557993e+00 0.0000000000000000e+00  4.5245197085180211e-02 -1.0673212513295469e+00 0.0000000000000000e+00  3.2641560179779226e-02 1.3843872811437032e+00 0.0000000000000000e+00  5.5790868095575624e-02 6.2308164079950301e-01 0.0000000000000000e+00  -1.3078125680077360e-01 -9.3367408835046226e-02 0.0000000000000000e+00  -2.7934547114885764e-06 -5.1051315613554812e-06 0.0000000000000000e+00  -9.5130266997617702e-03 -1.3583790149490806e+00 0.0000000000000000e+00  -8.3706628026554908e-04 7.3201514366943771e-04 0.0000000000000000e+00  -1.4045425190176774e-02 1.1935133167314855e+00 0.0000000000000000e+00  8.9924760853148766e-02 -9.1791856654075576e-01 0.0000000000000000e+00  5.2343469803080203e-02 9.8392521163153723e-01 0.0000000000000000e+00  -1.5909837387967424e-01 1.9347262474181884e-01 0.0000000000000000e+00  -2.3608766004302129e-01 -9.2413655004575068e-01 0.0000000000000000e+00  -7.0082447883947976e-03 5.3941417208167649e-04 0.0000000000000000e+00  -3.8843631696126459e-02 -6.8135996950087019e-01 0.0000000000000000e+00  1.0527014043779639e-03 -5.4963266094260266e-01 0.0000000000000000e+00  2.4401897588211926e-02 4.5791870614518732e-01 0.0000000000000000e+00  1.2149241873931259e-04 4.7290394609165862e-04 0.0000000000000000e+00  1.9915838778154785e-01 8.9560635589494852e-01 0.0000000000000000e+00  1.5928601239444862e-01 1.2509740922306418e+00 0.0000000000000000e+00  4.5961487769553139e-04 -3.0231335459095216e-04 0.0000000000000000e+00  -7.6508643298648327e-01 3.6554960852893681e-01 0.0000000000000000e+00  -1.1297457420921648e+00 1.6339390321821151e-01 0.0000000000000000e+00  -1.6508059378203213e-01 -3.2501536771733619e-01 0.0000000000000000e+00  5.0097233564481713e-01 8.0007657314816238e-01 0.0000000000000000e+00  3.2917156581506693e-02 6.5181063077256504e-02 0.0000000000000000e+00  3.0359320927018391e-02 1.2583075001618234e+00 0.0000000000000000e+00  -4.3046480276910395e-02 3.7317118285461165e-01 0.0000000000000000e+00  6.6910808243248854e-02 -8.0298117579877881e-01 0.0000000000000000e+00  1.6528955610007176e-01 3.1136736389484865e-01 0.0000000000000000e+00  1.5526255040116818e-03 3.1418844857626238e-05 0.0000000000000000e+00  -9.6293848680013172e-02 -1.0477189082276153e+00 0.0000000000000000e+00  1.3360502226751286e-04 5.5448111027019554e-04 0.0000000000000000e+00  -1.9640464329814117e-02 -2.1720238797087388e-01 0.0000000000000000e+00  -5.9750986702731580e-02 -1.2535594979407263e+00 0.0000000000000000e+00  -9.2339241822383511e-02 1.3104362626182360e+00 0.0000000000000000e+00  1.4933694629132297e-03 2.9773738075319515e-05 0.0000000000000000e+00  3.9249849420333416e-01 2.8826228487326431e-04 0.0000000000000000e+00  -2.6728779525639471e-02 6.1819916924649809e-01 0.0000000000000000e+00  4.2823795206309904e-02 -1.3075157889593820e+00 0.0000000000000000e+00  -8.0305508706023557e-02 -9.8769011769494752e-01 0.0000000000000000e+00  -2.7191796368477317e-01 9.9619375986004532e-01 0.0000000000000000e+00  3.0170314333408412e-02 -1.0715613781687401e+00 0.0000000000000000e+00  -7.4522906971659614e-02 1.3153733180869918e+00 0.0000000000000000e+00  -6.4793009354422948e-02 1.2840003394017416e+00 0.0000000000000000e+00  1.1284119735502088e-01 3.4095219122150278e-01 0.0000000000000000e+00  -9.2248500679983081e-02 1.2207664543339831e+00 0.0000000000000000e+00  1.1581918717693580e-02 1.3369068826867592e+00 0.0000000000000000e+00  1.7229718280857738e-02 1.0189878128171825e-01 0.0000000000000000e+00  3.9269404508958959e-02 -1.4028588887371021e+00 0.0000000000000000e+00  -1.0527336280861954e-01 1.1214851539209840e+00 0.0000000000000000e+00  5.4572990865752895e-02 -1.1665938155481077e+00 0.0000000000000000e+00  2.6137474847939330e-04 -7.4929047410467187e-04 0.0000000000000000e+00  1.2534417668763728e-02 -8.7569139777755778e-01 0.0000000000000000e+00  2.3898999370342883e-01 7.1685083563663343e-01 0.0000000000000000e+00  -7.4438973771162639e-02 -3.9256049276512661e-01 0.0000000000000000e+00  -9.2311701612382275e-04 1.0235763370444384e+00 0.0000000000000000e+00  -1.8829697841915546e-01 3.4343745612633564e-01 0.0000000000000000e+00  3.8721453116487878e-02 1.9186764750431778e-01 0.0000000000000000e+00  -4.1618545361145988e-02 3.3332248542057874e-01 0.0000000000000000e+00  6.4765289750292763e-04 6.8915261219483579e-04 0.0