<?xml version="1.0"?>
<VTKFile type="UnstructuredGrid"  version="0.1"  >
<UnstructuredGrid>
<Piece  NumberOfPoints="5185" NumberOfCells="10070">
<Points>
<DataArray  type="Float64"  NumberOfComponents="3"  format="ascii">0 1.5 0  0 0 0  0.1232405621108402 0 0  0.1232405621108402 0.02253860454731437 0  0.1476111412843772 0.06045996594834066 0  0.1886148129381372 0.07918571535047463 0  0.2332332010401509 0.07277055962836147 0  0.2673002826264945 0.0432512653964478 0  0.28 0 0  0.5342215165449864 0 0  0.5342215165449864 0.02394141003279682 0  0.5649999999999999 0.06062177826491071 0  0.6121553724366851 0.06893654271085457 0  0.6536231110183285 0.04499513267805775 0  0.6699999999999999 0 0  0.91 0 0  0.9220577136594005 0.04499999999999999 0  0.9550000000000001 0.07794228634059948 0  1 0.09 0  1.045 0.07794228634059946 0  1.077942286340599 0.04499999999999999 0  1.09 0 0  1.52324056211084 0 0  1.52324056211084 0.02253860454731437 0  1.547611141284377 0.06045996594834066 0  1.588614812938137 0.07918571535047463 0  1.633233201040151 0.07277055962836147 0  1.667300282626495 0.0432512653964478 0  1.68 0 0  1.84 0 0  1.857573593128807 0.04242640687119285 0  1.9 0.06 0  1.942426406871193 0.04242640687119285 0  1.96 0 0  2.22324056211084 0 0  2.22324056211084 0.02253860454731437 0  2.247611141284377 0.06045996594834066 0  2.288614812938137 0.07918571535047463 0  2.333233201040151 0.07277055962836147 0  2.367300282626494 0.0432512653964478 0  2.38 0 0  2.534221516544986 0 0  2.534221516544986 0.02394141003279682 0  2.565 0.06062177826491071 0  2.612155372436685 0.06893654271085457 0  2.653623111018328 0.04499513267805775 0  2.67 0 0  3 0 0  3 1.5 0  0 0.75 0  1.5 1.5 0  0 0.375 0  0.75 1.5 0  2.25 1.5 0  3 0.75 0  1.216228490499689 0.8069757125887627 0  1.965682393638027 0.8065702515463131 0  0.6025408912810675 0.8974591087189325 0  2.494676348647751 0.9946763486477508 0  2.356709259621435 0.5447946099875809 0  0.8599642199210003 0.5226206461323684 0  0.4216394361293908 0.4974105777134379 0  0.375 1.5 0  0 1.125 0  1.875 1.5 0  1.591091407334617 1.058091082812092 0  1.125 1.5 0  1.590810830624645 0.5394732912049653 0  0.9375 1.13479915923725 0  3 0.375 0  3 1.125 0  2.625 1.5 0  1.995245765771775 0.4277948434396763 0  2.145880954246818 1.137688199332401 0  1.227783477957362 0.427141979786574 0  2.705436295205127 0.5625 0  1.268702849688826 1.133996222613609 0  0.3526676910824388 1.147332308917561 0  0.3097907151415997 0.7889144057821572 0  0.903221947180751 0.828141240074398 0  0.6461527570085278 1.190944174645022 0  2.258488242757536 0.8210127920483788 0  2.400058919161888 1.260760484185309 0  2.778889354513028 0.9375 0  2.725079155390203 1.225079155390203 0  1.853608154101008 1.201589046866999 0  2.540576981905353 0.3370046821869876 0  0.7811555507088518 0.2732832036972447 0  1.493222576519009 0.798835058995101 0  1.747409300790817 0.3184283662481822 0  1.459899526511598 0.3067772450698331 0  0.1875 1.5 0  0 0.5625 0  2.521594883841638 0.7403247928378012 0  0.2438476629309629 0.32244155773108 0  3 0.1875 0  2.776470677837637 0.28125 0  2.121241022911138 0.6281701698960991 0  1.728545483402697 0.8581016441191361 0  1.012422318322288 0.3271268474523591 0  2.305755967143385 0.3144626442661202 0  1.30662028105542 0 0  1.6875 1.5 0  1.8265892939935 0.6051726401583923 0  0.5458598773451642 0.2962606377138959 0  0 0.9375 0  1.349377516922966 0.6209336375388498 0  1.079656249611334 0.612728400373996 0  0.7151087041654347 0.6989529576230681 0  2.0625 1.5 0  1.59375 1.288981971791887 0  2.085107439753329 0.2191742438537923 0  0.6402689932842839 0.4934943541428904 0  1.228474271256239 0.2064231070567615 0  1.3125 1.5 0  1.06968030723948 0.9647793670181679 0  0.2113350105157037 0.5332932754427466 0  0 1.3125 0  0.5051540211699285 0.7110632261327643 0  0.4775171365050886 1.316467280173536 0  1.967112413780365 1.020384154410382 0  0.8191736043349165 1.304781661824189 0  1.103455205015878 1.280328263155604 0  0.7649318329201844 1.023310716596371 0  0.2120544860962804 0.9823800432730223 0  1.359100570345391 0.9517705003379791 0  0.1711043107784345 1.21875 0  3 1.3125 0  2.8125 1.5 0  2.714178691455841 0.7554813872281284 0  2.217815962767571 1.313132398873298 0  2.020480176543968 1.307095379623413 0  2.29875620117699 1.013690599387144 0  0.3848285295772316 0.1937040883803935 0  0.9375 1.5 0  3 0.9375 0  2.4375 1.5 0  3 0.5625 0  0 0.1875 0  0.5625 1.5 0  2.835 0 0  1.386383673099448 1.305536509588035 0  1.773513842966063 1.0362399691084 0  2.179843036592861 0.4515211056338026 0  0.4134910794700652 0.9582824971065591 0  2.107214813096467 0.9125353945687058 0  1.916698009609654 0.2702971158297667 0  2.533006985360663 0.5155509623987015 0  2.838574938309606 0.4465309273225452 0  0.3016597101560133 1.338635596991575 0  1.641573393474498 0.7066136805426366 0  2.855238878880983 0.65625 0  1.398074618385877 0.1459865472102536 0  1.756539173374812 1.342993235461221 0  2.434593137832078 0.2067018044975929 0  1.434366740555482 0.4743139981449843 0  1.440742946818836 1.142108619191562 0  0.549043549720087 1.055391704395 0  2.571565919072277 1.32487216700893 0  2.535776521770127 1.159155922815097 0  2.652193336606067 1.04269083214613 0  0.660031172970541 1.35825582857438 0  2.607645482283307 0.8780318994093907 0  1.09590027081365 1.121554905778777 0  0.1474979543625655 0.8283466240195498 0  1.056776372361757 0.7739494406659941 0  0.3647560414155882 0.6427945145874604 0  1.699724067482516 1.17405657891935 0  0.913786173488833 0.9822051271795349 0  0.9283491691592597 0.66876089182342 0  0.7498959802087029 0.8498501951910959 0  0.3951228082283652 0.3465404522808934 0  1.23887612906836 1.360760366473919 0  0.1206420558503055 0.65625 0  1.735537276557186 0.4760109437618505 0  1.799297742536812 0.1791526413061006 0  1.970987958006469 0.6541756362249113 0  1.080810552147559 0.461742062484039 0  2.268149337929528 0.6688757993926466 0  2.413602460817152 0.8574959373397593 0  2.833998248858927 1.096635576389 0  2.71875 1.378451438260757 0  2.001906612723158 1.162230131308666 0  2.859452984352005 0.8083820929207302 0  2.688478120768856 0.4086214703657035 0  1.214106348747711 0.9519545202622776 0  2.850368184690094 1.307066142740315 0  1.864893983840636 0.9141560734025058 0  1.60661446108863 0.2395589708587393 0  1.61163060570479 0.3901968276506504 0  2.771867619212225 0.1335769833684914 0  0.7969119039620236 1.163109784140262 0  0.9599416701963486 1.276596315583475 0  2.103624150445193 0.7698297553089299 0  2.279721363034605 1.185280797873663 0  2.34375 1.392122382816539 0  0.1382307077648764 1.361769292235123 0  0.1426478344893104 0.2175212356047023 0  2.406413880432258 1.104106228251116 0  2.414971181397263 0.4111042519521358 0  2.637277274673136 0.2192348292007474 0  1.353600469573883 0.7646239317376279 0  1.494012125944227 0.651091825511382 0  1.590274899157226 0.9102986199774393 0  1.028633500752755 1.396325660524358 0  1.829615743479497 0.7518128394998403 0  1.861059000344659 0.3963812297683985 0  0.510900777690535 1.185277566959035 0  1.213080286311768 0.6640546084318578 0  0.79 0 0  0.8167897395818556 0.1376517357725223 0  0.9319739747594649 0.2144569310211157 0  1.889188139713804 1.330032757791382 0  0.655714683266079 0.2049689967103183 0  2.09162028105542 0 0  0.1359367774292784 0.4137345801986589 0  0.4380798275211911 0.8267965724704243 0  2.40400705830434 0.6721965963037969 0  0.3027633520173528 0.4394586980387968 0  0.8782788855287165 0.379708545377904 0  0.7595213470930909 0.4371189613680841 0  1.317967779309324 0.3170637160852436 0  0.6053759621699666 0.6225641226781395 0  0.6530309552265516 0.3661735489900947 0  2.594089294631991 0.631328821944253 0  0 1.03125 0  0.1304283746114646 1.089970844689444 0  0.4071107582724932 0 0  1.469526282978338 1.017083854458662 0  1.088959023533499 0.2104112015424126 0  1.161808378403757 0.3165749773273478 0  2.172966779463329 0.3188379172988492 0  2.216343768168092 0.1920401700474863 0  3 0.09375 0  1.905024675365066 0.5108806275986008 0  1.702014103004408 0.5963171944847371 0  0.2428042557945101 0.6514309613450368 0  3 1.40625 0  0.262372466757009 0.191725613649506 0  2.116791485436391 1.387145016777417 0  1.96875 1.5 0  2.885528053432104 0.3345800153572822 0  2.875601419873791 0.2042517854891826 0  2.298911783255236 0.4400662366556407 0  2.459247322083259 1.363881377923602 0  0.9735587139454543 0.5585353431007029 0  1.176315140569268 0.5379697839544898 0  2.0296370010214 0.5459700999805513 0  0.4987416453488727 0.4060939323248423 0  0.5397511702990104 0.1771676763212877 0  3 1.21875 0  2.238710633113112 0.5542203056099733 0  1.19831014052771 0 0  1.583962270593198 1.173633921912192 0  1.650563144166832 1.390075718520202 0  1.496025571730155 1.371899864460592 0  3 1.03125 0  2.887481932992674 0.9890041589451042 0  0.247836885460272 1.094286258989912 0  0.4719220056590702 0.6009044603312741 0  1.97565550452845 0.1615660574331665 0  2.131135530378305 0.1108580974478677 0  1.318642333542132 0.5051755928544708 0  1.217460132329928 1.242599824876711 0  1.511891312109549 0.1714963794002952 0  2.174601400318987 1.01685942781215 0  0.9082882406313817 1.384236564302014 0  0.6140422604397168 0.7728109899968187 0  0.8289359680247524 0.7347587321432018 0  0.741509926624258 0.5729763888559004 0  2.058356323822746 0.3313153147701495 0  0.4534336320756143 0.1034622594748756 0  1.40625 1.5 0  1.689084537897351 0.9628079283127213 0  1.156270839633873 0.1228556218721798 0  1.29033806179015 0.1118395069726669 0  1.460859151915469 0.9057320169622244 0  2.326558662668462 0.1831424028173474 0  0.9693052477371982 0.4460054238200853 0  0.6625304018229865 1.076650755704414 0  1.41493042158313 0 0  0.4485426513928407 1.096421738127594 0  0.2454589766548061 0.8778352103982039 0  0.1115239912906509 0.9339683416032414 0  1.134782462834443 0.8782884736059876 0  0.9999448991609674 1.04695529392896 0  0.9835215815673453 0.9000292002687431 0  2.53125 1.5 0  0.3175564878698739 1.010319294269645 0  1.971944763694389 0.9134401013848152 0  2.06
[...]
<PointData  Vectors="f_60"> 
<DataArray  type="Float64"  Name="f_60"  NumberOfComponents="3" format="ascii">-6.5008809595583226e-05 -3.9009353284062703e-04 0.0000000000000000e+00  2.9253344068435911e-04 3.6749127033702822e-05 0.0000000000000000e+00  3.8373805292158715e-04 6.5986524543275641e-04 0.0000000000000000e+00  -8.5967548433388735e-05 4.9929884175842307e-04 0.0000000000000000e+00  -3.2315070417494787e-04 4.1853243462738811e-04 0.0000000000000000e+00  1.8519553354192373e-04 4.7085854118458190e-04 0.0000000000000000e+00  -2.0621039197670646e-04 3.5653158373106565e-04 0.0000000000000000e+00  -6.4851287864706132e-05 2.6958054776641708e-04 0.0000000000000000e+00  1.9409237847619441e-04 1.5924709921211848e-04 0.0000000000000000e+00  -1.8336896647050388e-04 3.6098069314021347e-04 0.0000000000000000e+00  1.7302901381106040e-04 5.4972704528763808e-04 0.0000000000000000e+00  -7.1150515211383803e-06 2.7973224584159278e-04 0.0000000000000000e+00  9.9646766210740106e-05 1.5032383106466414e-04 0.0000000000000000e+00  -1.1706936597640146e-04 4.2608296059647117e-04 0.0000000000000000e+00  6.4248939870957671e-05 3.0535282273410090e-04 0.0000000000000000e+00  -2.1967043305017752e-04 4.3633475729581240e-04 0.0000000000000000e+00  -1.5038535346421344e-04 4.3532558498691977e-04 0.0000000000000000e+00  2.9807410212435073e-06 4.1766671008757481e-04 0.0000000000000000e+00  -1.9414763110281203e-04 5.1155192872944519e-04 0.0000000000000000e+00  1.9453362098823841e-04 2.5274054364383730e-04 0.0000000000000000e+00  -2.0532672779609401e-04 3.7257905587592953e-04 0.0000000000000000e+00  -3.0088095695293866e-04 7.6464251474883736e-04 0.0000000000000000e+00  -2.3485866926696930e-04 1.3854652162952804e-04 0.0000000000000000e+00  -1.4465944033618787e-04 2.4680999915712863e-04 0.0000000000000000e+00  -5.2588377554310333e-06 4.5055301873739713e-04 0.0000000000000000e+00  -1.2829983136606525e-04 5.4749192311579755e-04 0.0000000000000000e+00  2.7493192166361908e-04 4.2086649339242250e-04 0.0000000000000000e+00  3.4560208552092490e-04 4.2314184533006900e-04 0.0000000000000000e+00  3.8284715941627104e-05 6.2244965582040998e-04 0.0000000000000000e+00  1.3689883795476893e-04 6.5913790118825812e-05 0.0000000000000000e+00  2.6170083165947205e-04 2.0696274305428796e-04 0.0000000000000000e+00  -1.2586407191970793e-04 4.8390701523965898e-04 0.0000000000000000e+00  2.3551468936990898e-04 4.4189909611580194e-04 0.0000000000000000e+00  2.8360263738872713e-04 3.4478746668365829e-04 0.0000000000000000e+00  3.1625221344379166e-04 7.3641015051283565e-04 0.0000000000000000e+00  3.2368170653335253e-04 7.2289841464951083e-04 0.0000000000000000e+00  -1.7943541114078126e-04 2.6153931319916802e-04 0.0000000000000000e+00  8.1561308534850745e-05 3.9155192354620871e-04 0.0000000000000000e+00  -1.4103049961294135e-04 3.5889355336565483e-04 0.0000000000000000e+00  3.2777470645794792e-05 5.5056114224444146e-04 0.0000000000000000e+00  3.3221737630374581e-04 1.3396515323496410e-04 0.0000000000000000e+00  5.6320168065149441e-04 9.0929422683651002e-04 0.0000000000000000e+00  4.7463617633194992e-04 9.2324951184201952e-04 0.0000000000000000e+00  3.5282806741880450e-04 1.7540971780453642e-04 0.0000000000000000e+00  3.9265942771948458e-05 9.8179919988825026e-05 0.0000000000000000e+00  -3.6928578941023202e-04 7.7212304722953701e-04 0.0000000000000000e+00  2.3797968806334879e-04 2.9955268491675810e-04 0.0000000000000000e+00  -1.6135460411472437e-02 -4.2127733227910313e-03 0.0000000000000000e+00  1.3943116227394851e-04 1.3108786309603546e-03 0.0000000000000000e+00  -1.3866580971431529e-05 1.8540916543633993e-05 0.0000000000000000e+00  -1.4141070936867131e-05 -5.3476195663455361e-04 0.0000000000000000e+00  3.9615085252593873e-06 3.1755018681904192e-05 0.0000000000000000e+00  1.3146198289860596e-04 -1.8651403991410025e-04 0.0000000000000000e+00  -1.3879790614269352e-06 -2.0644267408089366e-04 0.0000000000000000e+00  4.9029620143242606e-04 -3.5084921627206299e-05 0.0000000000000000e+00  2.4453350884704110e-03 7.1515136142439406e-01 0.0000000000000000e+00  1.2337201554727570e-02 -5.9690199944264455e-01 0.0000000000000000e+00  -2.6033671486265751e-03 7.2865439211878946e-01 0.0000000000000000e+00  1.2491129626524823e-01 4.6018729098618160e-03 0.0000000000000000e+00  -6.4771836591287921e-02 6.7962150816490285e-01 0.0000000000000000e+00  1.8454369088952344e-02 4.8955656555758326e-01 0.0000000000000000e+00  2.7826704899877808e-02 -6.2845893062167713e-01 0.0000000000000000e+00  3.1236817443785201e-04 -4.6953758606079241e-04 0.0000000000000000e+00  7.2446408925850386e-06 2.4035201321856812e-06 0.0000000000000000e+00  2.2513323012408458e-04 -4.1734068234955141e-04 0.0000000000000000e+00  -2.4484458722327631e-03 -2.0685168603703905e-01 0.0000000000000000e+00  3.4693240504617667e-05 -3.7522625846328023e-04 0.0000000000000000e+00  2.0354269002124045e-03 -1.9787269808964500e-01 0.0000000000000000e+00  -2.8301282338446070e-02 5.2334265856277429e-01 0.0000000000000000e+00  -8.2044122429010687e-04 -1.5085909778307996e-04 0.0000000000000000e+00  1.1188426213339870e-03 -8.6184898438062133e-05 0.0000000000000000e+00  -3.5758554009333328e-04 -3.7209232334710352e-04 0.0000000000000000e+00  -3.7818109539976406e-02 -3.3537486942676897e-01 0.0000000000000000e+00  7.0431664034578179e-02 5.4083449318435306e-01 0.0000000000000000e+00  2.0065944043201955e-02 6.3328847919746722e-01 0.0000000000000000e+00  -1.2202094099391389e-01 1.1773340317160126e+00 0.0000000000000000e+00  -2.2678147593248446e-02 1.0807728169710334e-01 0.0000000000000000e+00  -2.0355378326536888e-02 3.1474859272649647e-01 0.0000000000000000e+00  6.7316944917739279e-03 7.0090279426928581e-01 0.0000000000000000e+00  1.3277004238632793e-03 7.3981361864512574e-01 0.0000000000000000e+00  -3.2814347634222613e-02 4.1107009541960826e-01 0.0000000000000000e+00  2.6838389746840479e-02 -5.3716343414899381e-01 0.0000000000000000e+00  1.7662773503022863e-01 8.6939816626585609e-01 0.0000000000000000e+00  1.5587000203156032e-01 4.7827528481942710e-01 0.0000000000000000e+00  3.7314612765968413e-01 1.0078361037864505e+00 0.0000000000000000e+00  1.7654284035891813e-02 3.7166659572048893e-01 0.0000000000000000e+00  -2.2298869160797322e-01 -4.8315865882013770e-01 0.0000000000000000e+00  2.4938843366691072e-02 -6.0437352719705273e-01 0.0000000000000000e+00  4.3639281325276577e-03 7.6834991297548405e-01 0.0000000000000000e+00  -1.7690790685554413e-02 3.7737315081119621e-01 0.0000000000000000e+00  7.5787200453019694e-03 4.9998641858885040e-01 0.0000000000000000e+00  1.2179169583643453e-04 -2.9435821186431081e-04 0.0000000000000000e+00  -6.7563699217042502e-06 1.5479966978357557e-05 0.0000000000000000e+00  9.5590881810839938e-04 -2.8081514242867067e-01 0.0000000000000000e+00  4.2874613928043308e-02 2.7193718207208950e-01 0.0000000000000000e+00  -3.8674920405755205e-03 -1.9485744584089074e-03 0.0000000000000000e+00  -4.2147766462882175e-01 3.2799636268769816e-01 0.0000000000000000e+00  -1.5975607927134487e-02 8.1267796144018301e-01 0.0000000000000000e+00  8.2611539825081688e-03 1.1400977089646291e-01 0.0000000000000000e+00  1.7225169438914594e-02 -5.1130691320279154e-01 0.0000000000000000e+00  -1.1663566769145270e-01 -1.3518848084466284e-01 0.0000000000000000e+00  -4.7651522350756570e-04 4.9622901095754915e-04 0.0000000000000000e+00  9.0298625739717279e-05 -3.4130304853380989e-04 0.0000000000000000e+00  -5.0897004565943647e-03 7.0582763862654951e-01 0.0000000000000000e+00  4.0473418735109179e-02 2.8313005343238318e-01 0.0000000000000000e+00  -1.8262755323442445e-06 2.2716329765837400e-05 0.0000000000000000e+00  1.0573900022789844e-02 -7.1731875907618714e-01 0.0000000000000000e+00  1.4263712469155110e-02 -5.9575217390922508e-01 0.0000000000000000e+00  1.2544070868543323e-02 -5.5718150725867033e-01 0.0000000000000000e+00  -7.3159781636034592e-04 -4.4387082415122721e-04 0.0000000000000000e+00  -1.0416033070227780e-02 -2.6086581293098565e-01 0.0000000000000000e+00  -7.1042403648878108e-02 7.7366586373968937e-01 0.0000000000000000e+00  2.4301254263126727e-02 4.8113806433784917e-01 0.0000000000000000e+00  3.3050352574648875e-02 6.1110003406635138e-01 0.0000000000000000e+00  -1.2710650922818375e-04 -3.1954591987218880e-04 0.0000000000000000e+00  -9.2077031438605930e-03 -6.7057448044973789e-01 0.0000000000000000e+00  1.8563748948536254e-02 -2.3224852287898595e-01 0.0000000000000000e+00  1.4717988791864727e-05 -1.4660289641063843e-05 0.0000000000000000e+00  1.2916440725525301e-02 -3.1715771448246682e-01 0.0000000000000000e+00  -5.3891639648166380e-02 -6.0892101431613632e-01 0.0000000000000000e+00  3.0490008342717347e-02 -6.0653329631126363e-01 0.0000000000000000e+00  -6.3959948209576817e-02 -8.2133204845857621e-02 0.0000000000000000e+00  -5.1617867944125206e-02 -3.1017076421978612e-01 0.0000000000000000e+00  -1.5144690268180688e-02 -7.0799393280627765e-01 0.0000000000000000e+00  -3.2776545143928656e-03 -2.2843019117756505e-01 0.0000000000000000e+00  -4.1275968840759130e-03 -7.0395198854089847e-01 0.0000000000000000e+00  -1.7912231741198433e-02 -6.8771900500318028e-01 0.0000000000000000e+00  1.3088633015159244e-03 1.7167708149998093e-06 0.0000000000000000e+00  6.3873604420963985e-04 -3.8692245661563896e-04 0.0000000000000000e+00  1.8200250925996319e-02 1.1838888172583717e+00 0.0000000000000000e+00  1.1031825872827536e-01 -4.8831592678195490e-01 0.0000000000000000e+00  2.7961190745551690e-02 -3.0508005865947992e-02 0.0000000000000000e+00  8.3526204002412577e-02 -2.1654958414465472e-01 0.0000000000000000e+00  2.9482169052065750e-02 -1.6873177936945677e-01 0.0000000000000000e+00  3.3625120546233647e-04 -4.8445982677073832e-04 0.0000000000000000e+00  8.4624264161522751e-04 4.7573500079993947e-07 0.0000000000000000e+00  5.2357280478968447e-04 -6.1010577231773472e-04 0.0000000000000000e+00  -8.1414879400066808e-05 -6.4807982807907504e-05 0.0000000000000000e+00  3.5915614839370203e-05 1.5696867244530699e-04 0.0000000000000000e+00  -4.5425020950053238e-04 -5.1702797583208222e-04 0.0000000000000000e+00  6.1618515813006145e-04 4.0319480959787274e-04 0.0000000000000000e+00  -4.7519411269503480e-02 -5.1288472613515224e-01 0.0000000000000000e+00  1.1287572691713496e-02 6.8525837549669621e-01 0.0000000000000000e+00  -6.0332534513786139e-02 6.0654167557266485e-02 0.0000000000000000e+00  -5.0095430507961520e-03 -5.5262930122086440e-01 0.0000000000000000e+00  3.6518620005501316e-02 8.6881135618500638e-01 0.0000000000000000e+00  -5.0885453686783565e-02 -5.0735828556495377e-01 0.0000000000000000e+00  -1.2129557308988957e-01 -3.8909484864558685e-01 0.0000000000000000e+00  -2.6725604992881380e-01 -1.7985927521605219e-01 0.0000000000000000e+00  -3.9421786411599387e-02 7.0124129266988866e-01 0.0000000000000000e+00  4.1427384489229283e-03 -6.7658631081768905e-01 0.0000000000000000e+00  -7.4553368034306025e-02 -1.3910128180791972e-01 0.0000000000000000e+00  6.6039442740566084e-02 -3.9782270558313776e-01 0.0000000000000000e+00  -3.5017035067112311e-02 4.5612562264431178e-01 0.0000000000000000e+00  -2.1313860466996745e-01 6.3334526745870323e-01 0.0000000000000000e+00  9.8552817417205604e-03 1.6440893033434559e-01 0.0000000000000000e+00  -1.7394767628470656e-02 2.6196340401150359e-01 0.0000000000000000e+00  -1.6770409831448729e-02 3.4789468707907589e-01 0.0000000000000000e+00  2.8887535480914478e-01 -5.1689669800515003e-01 0.0000000000000000e+00  2.0895290592801327e-01 -4.5650062700818911e-01 0.0000000000000000e+00  2.0076685431419539e-01 7.4599609102074960e-01 0.0000000000000000e+00  -1.3015440131153824e-02 2.0679748419016564e-01 0.0000000000000000e+00  8.7000296454662257e-02 1.0298542723404303e-01 0.0000000000000000e+00  -2.5293611219561907e-02 -4.1520195011210315e-01 0.0000000000000000e+00  3.3030819276523506e-03 -7.7553756070496316e-01 0.0000000000000000e+00  5.5052564995200148e-03 -7.2521450163856493e-01 0.0000000000000000e+00  1.6605202021393480e-02 1.3969645086900101e-01 0.0000000000000000e+00  -1.0951683980354170e-03 -3.3820696019531638e-01 0.0000000000000000e+00  -1.2494301765073750e-02 7.1151838934726586e-01 0.0000000000000000e+00  1.1711744218633252e-02 6.1598852688969530e-01 0.0000000000000000e+00  1.1823556550078151e-03 -7.4545371944108696e-01 0.0000000000000000e+00  3.9086600428792924e-02 -3.1379603557525704e-01 0.0000000000000000e+00  -1.5170642293429055e-02 4.7359724400070319e-01 0.0000000000000000e+00  7.2831802400160142e-03 -6.3638477823779327e-01 0.0000000000000000e+00  -8.8901891331338995e-03 2.1602465734273330e-01 0.0000000000000000e+00  -3.0404526472904328e-02 7.3271162920418464e-01 0.0000000000000000e+00  -6.6580598135434757e-03 -5.6366090474755959e-01 0.0000000000000000e+00  1.9649394107408635e-02 -5.8607277664869029e-01 0.0000000000000000e+00  -1.7265185771179529e-02 -4.9038632182680109e-01 0.0000000000000000e+00  5.4952105117465608e-02 9.7312473925948106e-01 0.0000000000000000e+00  3.0590286771772074e-01 -1.5793555242798010e-01 0.0000000000000000e+00  4.8155647970482668e-01 8.1899495875158301e-01 0.0000000000000000e+00  4.0756470832563195e-02 -2.7748708719459614e-01 0.0000000000000000e+00  5.3928158099840258e-02 -1.2713362703973496e-01 0.0000000000000000e+00  -2.3961114339638895e-01 1.1094830988510771e+00 0.0000000000000000e+00  -7.6681339733103990e-03 7.2365281728704955e-01 0.0000000000000000e+00  5.6339173685048061e-01 -3.1479390012293351e-01 0.0000000000000000e+00  1.6050817443612676e-02 2.4042261128242265e-01 0.0000000000000000e+00  -2.4081348235955029e-02 -4.2476098824283132e-01 0.0000000000000000e+00  -4.9005538735286619e-03 -4.7877962402499780e-01 0.0000000000000000e+00  -6.1420539488372916e-01 2.2073835275390988e-01 0.0000000000000000e+00  -3.1800088639188026e-02 -4.0884723111369664e-01 0.0000000000000000e+00  -3.8141491274109408e-02 2.2406567595269961e-01 0.0000000000000000e+00  1.0539909073185342e-02 8.8167432921291411e-01 0.0000000000000000e+00  1.1328055383523065e-01 -4.8538655386504537e-01 0.0000000000000000e+00  6.9028436034274415e-02 2.8248299600097909e-01 0.0000000000000000e+00  -1.6444511586078778e-02 -6.8259303319564313e-01 0.0000000000000000e+00  4.2572624460663219e-02 -6.8930444582149986e-01 0.0000000000000000e+00  1.4091424822894272e-01 9.4007512922140180e-01 0.0000000000000000e+00  -1.2872533877684114e-01 9.0917623231332012e-01 0.0000000000000000e+00  -3.4376106133307782e-01 4.5926919742226940e-01 0.0000000000000000e+00  5.6776826910529613e-03 -7.1421532028448365e-01 0.0000000000000000e+00  6.8353743489921069e-03 7.6902191646608065e-01 0.0000000000000000e+00  3.0079794075400829e-03 -1.8759192836960381e-01 0.0000000000000000e+00  -1.8595230991599335e-02 -5.8627804129395611e-01 0.0000000000000000e+00  5.7331924631169326e-03 6.8390583855663212e-01 0.0000000000000000e+00  -2.6271332805210174e-02 2.7828243188872914e-01 0.0000000000000000e+00  -3.0882647198766513e-02 -2.2091117276324027e-01 0.0000000000000000e+00  1.0142127412442466e-02 7.2907989342130364e-01 0.0000000000000000e+00  5.5024797411785541e-04 5.2209563496209536e-04 0.0000000000000000e+00  8.6900209215058671e-02 -1.5140637414646960e-01 0.0000000000000000e+00  -7.3500325321509269e-03 5.6300395040623630e-01 0.0000000000000000e+00  3.6739385615824786e-02 -1.7516875851491184e-01 0.0000000000000000e+00  1.3705526443042550e-02 2.5723071680406895e-01 0.0000000000000000e+00  -9.7065831389104486e-05 2.4274223689591258e-04 0.0000000000000000e+00  2.0218785127767407e-02 -7.1846818839902504e-01 0.0000000000000000e+00  5.2047063057386088e-03 -7.3511659862989953e-01 0.0000000000000000e+00  -2.0854692165704465e-02 9.9720624770836097e-01 0.0000000000000000e+00  2.9628140572042164e-02 7.2402139559872225e-01 0.0000000000000000e+00  2.0083445844000635e-02 6.5873083581315406e-01 0.0000000000000000e+00  2.3424681666033030e-02 -7.3710198180763919e-01 0.0000000000000000e+00  2.1959886547098680e-02 -5.6735368545828002e-01 0.0000000000000000e+00  1.7796238577661164e-02 7.2331953055938514e-01 0.0000000000000000e+00  2.8492109732851538e-02 3.1480587831154727e-01 0.0000000000000000e+00  -6.5162262104244043e-02 -7.0237062751140125e-02 0.0000000000000000e+00  -7.7678796669873494e-06 1.6196042612713487e-05 0.0000000000000000e+00  -5.8447908511949287e-03 -7.1242792741218441e-01 0.0000000000000000e+00  -5.8948192007625953e-04 5.2043931710289335e-04 0.0000000000000000e+00  -5.9774940919582933e-03 6.2308314113828922e-01 0.0000000000000000e+00  4.3112458225368605e-02 -4.7298333744832571e-01 0.0000000000000000e+00  2.8120954086344834e-02 5.2330988543767221e-01 0.0000000000000000e+00  -8.4487086570670014e-02 1.3513264102470307e-01 0.0000000000000000e+00  -1.2657133631989903e-01 -4.6476629875155945e-01 0.0000000000000000e+00  -4.4000999538537566e-03 -6.2238512039952036e-04 0.0000000000000000e+00  -1.9349170237558565e-02 -3.5037690654324499e-01 0.0000000000000000e+00  -3.2057725121241252e-05 -2.8724235580877611e-01 0.0000000000000000e+00  1.2961705991269671e-02 2.4337926934990964e-01 0.0000000000000000e+00  1.6861915997627844e-03 4.5894207664944790e-06 0.0000000000000000e+00  9.8269372269560187e-02 4.8816816836396981e-01 0.0000000000000000e+00  8.6855232815808037e-02 6.5545100957958513e-01 0.0000000000000000e+00  2.2212203420513289e-04 -1.5873204563440402e-04 0.0000000000000000e+00  -4.1007309773964229e-01 6.7915795118721811e-02 0.0000000000000000e+00  -5.9275185724167634e-01 -1.0227054479747533e-01 0.0000000000000000e+00  -8.5970288528520886e-02 -1.9971122371028702e-01 0.0000000000000000e+00  2.6468836250814842e-01 3.4642944182167096e-01 0.0000000000000000e+00  1.6526514216970524e-02 2.7501773729821512e-02 0.0000000000000000e+00  1.6113959461495575e-02 6.6187445104980969e-01 0.0000000000000000e+00  -2.4127076535490830e-02 1.8720086002495409e-01 0.0000000000000000e+00  3.3235776653135089e-02 -4.1029089588123846e-01 0.0000000000000000e+00  8.3016456224087029e-02 1.8041714039804344e-01 0.0000000000000000e+00  1.1743518147103711e-03 1.7382300691273371e-05 0.0000000000000000e+00  -4.6595626202358971e-02 -5.4439569844330704e-01 0.0000000000000000e+00  8.3432799124519348e-05 2.9224886184703726e-04 0.0000000000000000e+00  -9.4693608519235591e-03 -1.0840015289423427e-01 0.0000000000000000e+00  -2.3622682693963712e-02 -6.5144200742119873e-01 0.0000000000000000e+00  -4.6185037515974477e-02 6.9169247152288227e-01 0.0000000000000000e+00  9.6844819785211209e-04 -1.1077248945772087e-05 0.0000000000000000e+00  2.1629729107127058e-01 6.0970834063062800e-02 0.0000000000000000e+00  -1.2307961638338392e-02 3.1765590286102102e-01 0.0000000000000000e+00  2.0774462627756746e-02 -6.8195393014392269e-01 0.0000000000000000e+00  -4.9148777458681819e-02 -5.3500192016363002e-01 0.0000000000000000e+00  -1.4475533531678370e-01 5.4933770320236086e-01 0.0000000000000000e+00  1.4646400104771251e-02 -5.6591690680107487e-01 0.0000000000000000e+00  -3.5914603875140172e-02 6.9450311027016043e-01 0.0000000000000000e+00  -2.7907265025307441e-02 6.7058824810118178e-01 0.0000000000000000e+00  6.0832752988324308e-02 1.5660195466524299e-01 0.0000000000000000e+00  -4.9588303849025836e-02 6.5248976266543168e-01 0.0000000000000000e+00  7.4918072819401956e-03 6.9839832160454529e-01 0.0000000000000000e+00  8.8750314779038903e-03 5.6273150417624609e-02 0.0000000000000000e+00  1.9163383005283741e-02 -7.3665165299083657e-01 0.0000000000000000e+00  -5.8171439497292581e-02 5.7268512871884736e-01 0.0000000000000000e+00  3.2566567337982424e-02 -6.2829541362436725e-01 0.0000000000000000e+00  1.1606831774600590e-04 -3.7079386528869824e-04 0.0000000000000000e+00  6.6087135989588049e-03 -4.5594795420427076e-01 0.0000000000000000e+00  1.1746312446476422e-01 3.9664978740594559e-01 0.0000000000000000e+00  -3.5734950252564048e-02 -2.1667803560636284e-01 0.0000000000000000e+00  2.0954124458410841e-04 5.3591070854844514e-01 0.0000000000000000e+00  -1.0520526713786382e-01 1.3529755449186653e-01 0.0000000000000000e+00  1.9138911183671826e-02 9.3177695574493666e-02 0.0000000000000000e+00  -2.0330442698745250e-02 1.8258448336645430e-01 0.0000000000000000e+00  4.7865859513964955e-04 4.7040669439902546e-04 0.000