<?xml version="1.0"?>
<VTKFile type="UnstructuredGrid"  version="0.1"  >
<UnstructuredGrid>
<Piece  NumberOfPoints="5185" NumberOfCells="10070">
<Points>
<DataArray  type="Float64"  NumberOfComponents="3"  format="ascii">0 1.5 0  0 0 0  0.1232405621108402 0 0  0.1232405621108402 0.02253860454731437 0  0.1476111412843772 0.06045996594834066 0  0.1886148129381372 0.07918571535047463 0  0.2332332010401509 0.07277055962836147 0  0.2673002826264945 0.0432512653964478 0  0.28 0 0  0.5342215165449864 0 0  0.5342215165449864 0.02394141003279682 0  0.5649999999999999 0.06062177826491071 0  0.6121553724366851 0.06893654271085457 0  0.6536231110183285 0.04499513267805775 0  0.6699999999999999 0 0  0.91 0 0  0.9220577136594005 0.04499999999999999 0  0.9550000000000001 0.07794228634059948 0  1 0.09 0  1.045 0.07794228634059946 0  1.077942286340599 0.04499999999999999 0  1.09 0 0  1.52324056211084 0 0  1.52324056211084 0.02253860454731437 0  1.547611141284377 0.06045996594834066 0  1.588614812938137 0.07918571535047463 0  1.633233201040151 0.07277055962836147 0  1.667300282626495 0.0432512653964478 0  1.68 0 0  1.84 0 0  1.857573593128807 0.04242640687119285 0  1.9 0.06 0  1.942426406871193 0.04242640687119285 0  1.96 0 0  2.22324056211084 0 0  2.22324056211084 0.02253860454731437 0  2.247611141284377 0.06045996594834066 0  2.288614812938137 0.07918571535047463 0  2.333233201040151 0.07277055962836147 0  2.367300282626494 0.0432512653964478 0  2.38 0 0  2.534221516544986 0 0  2.534221516544986 0.02394141003279682 0  2.565 0.06062177826491071 0  2.612155372436685 0.06893654271085457 0  2.653623111018328 0.04499513267805775 0  2.67 0 0  3 0 0  3 1.5 0  0 0.75 0  1.5 1.5 0  0 0.375 0  0.75 1.5 0  2.25 1.5 0  3 0.75 0  1.216228490499689 0.8069757125887627 0  1.965682393638027 0.8065702515463131 0  0.6025408912810675 0.8974591087189325 0  2.494676348647751 0.9946763486477508 0  2.356709259621435 0.5447946099875809 0  0.8599642199210003 0.5226206461323684 0  0.4216394361293908 0.4974105777134379 0  0.375 1.5 0  0 1.125 0  1.875 1.5 0  1.591091407334617 1.058091082812092 0  1.125 1.5 0  1.590810830624645 0.5394732912049653 0  0.9375 1.13479915923725 0  3 0.375 0  3 1.125 0  2.625 1.5 0  1.995245765771775 0.4277948434396763 0  2.145880954246818 1.137688199332401 0  1.227783477957362 0.427141979786574 0  2.705436295205127 0.5625 0  1.268702849688826 1.133996222613609 0  0.3526676910824388 1.147332308917561 0  0.3097907151415997 0.7889144057821572 0  0.903221947180751 0.828141240074398 0  0.6461527570085278 1.190944174645022 0  2.258488242757536 0.8210127920483788 0  2.400058919161888 1.260760484185309 0  2.778889354513028 0.9375 0  2.725079155390203 1.225079155390203 0  1.853608154101008 1.201589046866999 0  2.540576981905353 0.3370046821869876 0  0.7811555507088518 0.2732832036972447 0  1.493222576519009 0.798835058995101 0  1.747409300790817 0.3184283662481822 0  1.459899526511598 0.3067772450698331 0  0.1875 1.5 0  0 0.5625 0  2.521594883841638 0.7403247928378012 0  0.2438476629309629 0.32244155773108 0  3 0.1875 0  2.776470677837637 0.28125 0  2.121241022911138 0.6281701698960991 0  1.728545483402697 0.8581016441191361 0  1.012422318322288 0.3271268474523591 0  2.305755967143385 0.3144626442661202 0  1.30662028105542 0 0  1.6875 1.5 0  1.8265892939935 0.6051726401583923 0  0.5458598773451642 0.2962606377138959 0  0 0.9375 0  1.349377516922966 0.6209336375388498 0  1.079656249611334 0.612728400373996 0  0.7151087041654347 0.6989529576230681 0  2.0625 1.5 0  1.59375 1.288981971791887 0  2.085107439753329 0.2191742438537923 0  0.6402689932842839 0.4934943541428904 0  1.228474271256239 0.2064231070567615 0  1.3125 1.5 0  1.06968030723948 0.9647793670181679 0  0.2113350105157037 0.5332932754427466 0  0 1.3125 0  0.5051540211699285 0.7110632261327643 0  0.4775171365050886 1.316467280173536 0  1.967112413780365 1.020384154410382 0  0.8191736043349165 1.304781661824189 0  1.103455205015878 1.280328263155604 0  0.7649318329201844 1.023310716596371 0  0.2120544860962804 0.9823800432730223 0  1.359100570345391 0.9517705003379791 0  0.1711043107784345 1.21875 0  3 1.3125 0  2.8125 1.5 0  2.714178691455841 0.7554813872281284 0  2.217815962767571 1.313132398873298 0  2.020480176543968 1.307095379623413 0  2.29875620117699 1.013690599387144 0  0.3848285295772316 0.1937040883803935 0  0.9375 1.5 0  3 0.9375 0  2.4375 1.5 0  3 0.5625 0  0 0.1875 0  0.5625 1.5 0  2.835 0 0  1.386383673099448 1.305536509588035 0  1.773513842966063 1.0362399691084 0  2.179843036592861 0.4515211056338026 0  0.4134910794700652 0.9582824971065591 0  2.107214813096467 0.9125353945687058 0  1.916698009609654 0.2702971158297667 0  2.533006985360663 0.5155509623987015 0  2.838574938309606 0.4465309273225452 0  0.3016597101560133 1.338635596991575 0  1.641573393474498 0.7066136805426366 0  2.855238878880983 0.65625 0  1.398074618385877 0.1459865472102536 0  1.756539173374812 1.342993235461221 0  2.434593137832078 0.2067018044975929 0  1.434366740555482 0.4743139981449843 0  1.440742946818836 1.142108619191562 0  0.549043549720087 1.055391704395 0  2.571565919072277 1.32487216700893 0  2.535776521770127 1.159155922815097 0  2.652193336606067 1.04269083214613 0  0.660031172970541 1.35825582857438 0  2.607645482283307 0.8780318994093907 0  1.09590027081365 1.121554905778777 0  0.1474979543625655 0.8283466240195498 0  1.056776372361757 0.7739494406659941 0  0.3647560414155882 0.6427945145874604 0  1.699724067482516 1.17405657891935 0  0.913786173488833 0.9822051271795349 0  0.9283491691592597 0.66876089182342 0  0.7498959802087029 0.8498501951910959 0  0.3951228082283652 0.3465404522808934 0  1.23887612906836 1.360760366473919 0  0.1206420558503055 0.65625 0  1.735537276557186 0.4760109437618505 0  1.799297742536812 0.1791526413061006 0  1.970987958006469 0.6541756362249113 0  1.080810552147559 0.461742062484039 0  2.268149337929528 0.6688757993926466 0  2.413602460817152 0.8574959373397593 0  2.833998248858927 1.096635576389 0  2.71875 1.378451438260757 0  2.001906612723158 1.162230131308666 0  2.859452984352005 0.8083820929207302 0  2.688478120768856 0.4086214703657035 0  1.214106348747711 0.9519545202622776 0  2.850368184690094 1.307066142740315 0  1.864893983840636 0.9141560734025058 0  1.60661446108863 0.2395589708587393 0  1.61163060570479 0.3901968276506504 0  2.771867619212225 0.1335769833684914 0  0.7969119039620236 1.163109784140262 0  0.9599416701963486 1.276596315583475 0  2.103624150445193 0.7698297553089299 0  2.279721363034605 1.185280797873663 0  2.34375 1.392122382816539 0  0.1382307077648764 1.361769292235123 0  0.1426478344893104 0.2175212356047023 0  2.406413880432258 1.104106228251116 0  2.414971181397263 0.4111042519521358 0  2.637277274673136 0.2192348292007474 0  1.353600469573883 0.7646239317376279 0  1.494012125944227 0.651091825511382 0  1.590274899157226 0.9102986199774393 0  1.028633500752755 1.396325660524358 0  1.829615743479497 0.7518128394998403 0  1.861059000344659 0.3963812297683985 0  0.510900777690535 1.185277566959035 0  1.213080286311768 0.6640546084318578 0  0.79 0 0  0.8167897395818556 0.1376517357725223 0  0.9319739747594649 0.2144569310211157 0  1.889188139713804 1.330032757791382 0  0.655714683266079 0.2049689967103183 0  2.09162028105542 0 0  0.1359367774292784 0.4137345801986589 0  0.4380798275211911 0.8267965724704243 0  2.40400705830434 0.6721965963037969 0  0.3027633520173528 0.4394586980387968 0  0.8782788855287165 0.379708545377904 0  0.7595213470930909 0.4371189613680841 0  1.317967779309324 0.3170637160852436 0  0.6053759621699666 0.6225641226781395 0  0.6530309552265516 0.3661735489900947 0  2.594089294631991 0.631328821944253 0  0 1.03125 0  0.1304283746114646 1.089970844689444 0  0.4071107582724932 0 0  1.469526282978338 1.017083854458662 0  1.088959023533499 0.2104112015424126 0  1.161808378403757 0.3165749773273478 0  2.172966779463329 0.3188379172988492 0  2.216343768168092 0.1920401700474863 0  3 0.09375 0  1.905024675365066 0.5108806275986008 0  1.702014103004408 0.5963171944847371 0  0.2428042557945101 0.6514309613450368 0  3 1.40625 0  0.262372466757009 0.191725613649506 0  2.116791485436391 1.387145016777417 0  1.96875 1.5 0  2.885528053432104 0.3345800153572822 0  2.875601419873791 0.2042517854891826 0  2.298911783255236 0.4400662366556407 0  2.459247322083259 1.363881377923602 0  0.9735587139454543 0.5585353431007029 0  1.176315140569268 0.5379697839544898 0  2.0296370010214 0.5459700999805513 0  0.4987416453488727 0.4060939323248423 0  0.5397511702990104 0.1771676763212877 0  3 1.21875 0  2.238710633113112 0.5542203056099733 0  1.19831014052771 0 0  1.583962270593198 1.173633921912192 0  1.650563144166832 1.390075718520202 0  1.496025571730155 1.371899864460592 0  3 1.03125 0  2.887481932992674 0.9890041589451042 0  0.247836885460272 1.094286258989912 0  0.4719220056590702 0.6009044603312741 0  1.97565550452845 0.1615660574331665 0  2.131135530378305 0.1108580974478677 0  1.318642333542132 0.5051755928544708 0  1.217460132329928 1.242599824876711 0  1.511891312109549 0.1714963794002952 0  2.174601400318987 1.01685942781215 0  0.9082882406313817 1.384236564302014 0  0.6140422604397168 0.7728109899968187 0  0.8289359680247524 0.7347587321432018 0  0.741509926624258 0.5729763888559004 0  2.058356323822746 0.3313153147701495 0  0.4534336320756143 0.1034622594748756 0  1.40625 1.5 0  1.689084537897351 0.9628079283127213 0  1.156270839633873 0.1228556218721798 0  1.29033806179015 0.1118395069726669 0  1.460859151915469 0.9057320169622244 0  2.326558662668462 0.1831424028173474 0  0.9693052477371982 0.4460054238200853 0  0.6625304018229865 1.076650755704414 0  1.41493042158313 0 0  0.4485426513928407 1.096421738127594 0  0.2454589766548061 0.8778352103982039 0  0.1115239912906509 0.9339683416032414 0  1.134782462834443 0.8782884736059876 0  0.9999448991609674 1.04695529392896 0  0.9835215815673453 0.9000292002687431 0  2.53125 1.5 0  0.3175564878698739 1.010319294269645 0  1.971944763694389 0.9134401013848152 0  2.06
[...]
<PointData  Vectors="f_60"> 
<DataArray  type="Float64"  Name="f_60"  NumberOfComponents="3" format="ascii">-1.0931612229186807e-04 -2.9578025361814015e-04 0.0000000000000000e+00  -2.1655082668149939e-05 1.3770427262519650e-04 0.0000000000000000e+00  8.4185703820029579e-04 8.8581934910847285e-04 0.0000000000000000e+00  1.8615939755486260e-04 8.5833367934778600e-04 0.0000000000000000e+00  -5.6659459773832326e-04 6.4115591348506875e-04 0.0000000000000000e+00  -5.2945613950321635e-06 8.5153613116554919e-04 0.0000000000000000e+00  -3.8774863278357412e-04 8.7823063274080520e-04 0.0000000000000000e+00  4.9813809751824566e-05 6.2637320614287095e-04 0.0000000000000000e+00  5.6564689016093070e-04 3.1762250230509762e-04 0.0000000000000000e+00  -3.3119587709300787e-04 3.7803436561990389e-04 0.0000000000000000e+00  1.9142041553739001e-04 7.1408659383711149e-04 0.0000000000000000e+00  2.0140315758146941e-05 8.7635301498876291e-04 0.0000000000000000e+00  2.1833622183345725e-04 2.4977014568228998e-04 0.0000000000000000e+00  -1.6263677043261738e-04 8.3937741254069571e-04 0.0000000000000000e+00  1.5077232893282645e-04 4.7518445885767931e-04 0.0000000000000000e+00  -6.0281352499172794e-04 9.7782121321685739e-04 0.0000000000000000e+00  -6.1694577442799562e-04 1.0420466224360537e-03 0.0000000000000000e+00  -1.7754708709290015e-05 9.6631590145347961e-04 0.0000000000000000e+00  -2.1608281375617687e-04 1.1066665492348261e-03 0.0000000000000000e+00  2.3581517551939910e-04 6.6088468861596800e-04 0.0000000000000000e+00  -5.2394861162002870e-04 9.6054360718482717e-04 0.0000000000000000e+00  -5.1897788611992852e-04 5.5755126135332113e-04 0.0000000000000000e+00  -6.2659423218322855e-04 6.0498278401672086e-05 0.0000000000000000e+00  -5.5048652321492851e-04 5.1076878892706776e-04 0.0000000000000000e+00  -1.9071317349013132e-04 1.0095483594616853e-03 0.0000000000000000e+00  -6.7287243621720353e-05 1.2966852742275969e-03 0.0000000000000000e+00  4.5640561110285100e-04 8.1397371317029198e-04 0.0000000000000000e+00  2.0803150507843531e-04 7.3873864740841959e-04 0.0000000000000000e+00  -4.2666253325009329e-04 1.0528016906494412e-03 0.0000000000000000e+00  3.1319224188192312e-05 1.5556773650115096e-04 0.0000000000000000e+00  4.0187740679041605e-04 4.7636259284913570e-04 0.0000000000000000e+00  1.0314313884567651e-05 9.5518563616312066e-04 0.0000000000000000e+00  3.4861371005649489e-04 7.3562368777588141e-04 0.0000000000000000e+00  1.4555705331174067e-04 5.7964183332891357e-04 0.0000000000000000e+00  5.5669551139608570e-04 4.7674075253144771e-04 0.0000000000000000e+00  4.4924112025290813e-04 7.5544003932296884e-04 0.0000000000000000e+00  4.1995764041291959e-05 8.6146482137672059e-04 0.0000000000000000e+00  2.3237968630450726e-04 9.0347874706533200e-04 0.0000000000000000e+00  -2.2835571201692891e-04 6.0716384088644378e-04 0.0000000000000000e+00  2.9102145652233028e-04 1.4708308241055204e-03 0.0000000000000000e+00  7.4453261848182197e-04 2.3847295843101011e-04 0.0000000000000000e+00  7.2965606169331384e-04 5.1290308217264693e-04 0.0000000000000000e+00  7.8853263891457304e-04 7.0166967946922235e-04 0.0000000000000000e+00  1.1417533843582394e-03 1.0916787956452396e-03 0.0000000000000000e+00  -1.3290464263784199e-04 -4.9164439682328079e-04 0.0000000000000000e+00  -3.9957771623235465e-04 1.7831169922655858e-03 0.0000000000000000e+00  1.0638186954201741e-03 -1.0400654802244922e-04 0.0000000000000000e+00  -1.4725891194231870e-02 -1.7780443745483289e-03 0.0000000000000000e+00  -2.4256609074918300e-03 1.3041592084740699e-03 0.0000000000000000e+00  -2.9358305912048425e-05 -7.3909878212040229e-06 0.0000000000000000e+00  1.3209234428235311e-04 -7.5193173379232287e-04 0.0000000000000000e+00  1.6999498728674411e-05 2.9017335998781695e-05 0.0000000000000000e+00  4.4073816073634614e-04 -3.2750345254327844e-04 0.0000000000000000e+00  -3.3597198590702467e-05 -4.5587704820775391e-04 0.0000000000000000e+00  5.1445463391308621e-04 -1.1063084355361005e-04 0.0000000000000000e+00  1.1743749739988954e-03 1.8236532091382736e+00 0.0000000000000000e+00  2.2606101983802307e-02 -1.5342217371293514e+00 0.0000000000000000e+00  -1.6614942214611718e-02 1.8575802886724913e+00 0.0000000000000000e+00  2.8603590059627626e-01 2.3254663656544000e-01 0.0000000000000000e+00  -1.3351977543585045e-01 1.8166073450590756e+00 0.0000000000000000e+00  5.0124713189811376e-02 1.2174728948377662e+00 0.0000000000000000e+00  7.9437041343020279e-02 -1.5598046984331893e+00 0.0000000000000000e+00  2.8489284885939274e-04 -8.4016181110494880e-04 0.0000000000000000e+00  6.6458516867677333e-07 -4.1161116830140900e-05 0.0000000000000000e+00  1.3548727868136929e-04 -8.0349078582968932e-04 0.0000000000000000e+00  -7.4030535710834979e-03 -5.3895219192235944e-01 0.0000000000000000e+00  1.1111211380096415e-04 -7.4720286561986721e-04 0.0000000000000000e+00  6.2137241683457491e-03 -5.0096565642038826e-01 0.0000000000000000e+00  -8.3800514539530593e-02 1.2872110498065641e+00 0.0000000000000000e+00  -3.3768064971218641e-03 -5.7207199060191626e-05 0.0000000000000000e+00  1.4848981299852807e-03 -1.5948723722049800e-06 0.0000000000000000e+00  3.4912080076038537e-04 -6.0314671879288344e-04 0.0000000000000000e+00  -9.8332452855732763e-02 -7.8503035675186283e-01 0.0000000000000000e+00  1.7523313592095158e-01 1.4976852079339293e+00 0.0000000000000000e+00  4.6730099940070942e-02 1.6389124303601672e+00 0.0000000000000000e+00  -2.5292599706889252e-01 2.8756887835562805e+00 0.0000000000000000e+00  -6.3914715405876635e-02 2.2017289627020156e-01 0.0000000000000000e+00  -6.0883823100264939e-02 7.6110876901910329e-01 0.0000000000000000e+00  1.0728689913804278e-02 1.7941153584630254e+00 0.0000000000000000e+00  -4.8821990505837840e-03 1.8867747571755897e+00 0.0000000000000000e+00  -9.5729246759289469e-02 9.8307701516256762e-01 0.0000000000000000e+00  4.1480486242607299e-02 -1.3909858484003148e+00 0.0000000000000000e+00  4.4638678770321011e-01 2.1936904859742556e+00 0.0000000000000000e+00  3.9381925037434745e-01 1.5025418883855763e+00 0.0000000000000000e+00  1.0097456334782609e+00 2.7715521641551395e+00 0.0000000000000000e+00  3.5811415257730302e-02 9.7722194674587648e-01 0.0000000000000000e+00  -6.0582853596944797e-01 -1.1907489349287148e+00 0.0000000000000000e+00  6.9945096791813086e-02 -1.5577611883345615e+00 0.0000000000000000e+00  9.3912939269685941e-03 1.9559718010743019e+00 0.0000000000000000e+00  -3.7843462684450616e-02 9.8155916071226712e-01 0.0000000000000000e+00  3.1841991128936660e-02 1.2525284506275027e+00 0.0000000000000000e+00  3.6539230084457573e-04 -6.4750256343757502e-04 0.0000000000000000e+00  -5.4284861563777555e-06 -2.3021515445684952e-06 0.0000000000000000e+00  -4.9019806109588636e-02 -7.3080670074500942e-01 0.0000000000000000e+00  1.1311010604887611e-01 6.0668561652609998e-01 0.0000000000000000e+00  -9.8638116807432639e-03 -1.8581385468785462e-03 0.0000000000000000e+00  -1.1497411560699178e+00 4.5782224235837816e-03 0.0000000000000000e+00  -2.5478949001096506e-02 2.0401247847194144e+00 0.0000000000000000e+00  2.3511931175670228e-02 2.7053347899353292e-01 0.0000000000000000e+00  4.8760357563471787e-02 -1.2788498828554433e+00 0.0000000000000000e+00  -2.8679000672492577e-01 -1.1845583695520139e-01 0.0000000000000000e+00  -6.6968746502095227e-04 7.9716590342937337e-04 0.0000000000000000e+00  2.5355630195481575e-04 -7.7186900997992748e-04 0.0000000000000000e+00  -6.7876056897649278e-03 1.7825426644597329e+00 0.0000000000000000e+00  1.0736980738808116e-01 6.4431459976616268e-01 0.0000000000000000e+00  -3.7238263614652281e-07 -4.8785555320910885e-06 0.0000000000000000e+00  3.3139162927233741e-02 -1.8255019422693750e+00 0.0000000000000000e+00  4.1767160500051859e-02 -1.5335329635478667e+00 0.0000000000000000e+00  3.7748270986033367e-02 -1.3978671340705040e+00 0.0000000000000000e+00  -1.1276141894048896e-03 -6.9860033429748093e-04 0.0000000000000000e+00  -2.9594874589811179e-02 -7.0703576463989859e-01 0.0000000000000000e+00  -1.7542045152968508e-01 1.9987892449929510e+00 0.0000000000000000e+00  6.1028998632238637e-02 1.2676570041922208e+00 0.0000000000000000e+00  8.5589789172182462e-02 1.6105837546712742e+00 0.0000000000000000e+00  -4.0440598936459214e-04 -5.8787379325023561e-04 0.0000000000000000e+00  -1.6168651483665593e-02 -1.6984275265771958e+00 0.0000000000000000e+00  5.0978801662133026e-02 -6.2884432590723016e-01 0.0000000000000000e+00  6.5277719222988761e-05 -2.3897768901079636e-04 0.0000000000000000e+00  3.6601680886928389e-02 -8.2726983513426056e-01 0.0000000000000000e+00  -1.3860221769016973e-01 -1.4868355353826004e+00 0.0000000000000000e+00  7.0665707952243403e-02 -1.5805335566226102e+00 0.0000000000000000e+00  -1.7104349208726005e-01 -8.9812574363864736e-02 0.0000000000000000e+00  -1.3280187256175963e-01 -6.9415374784176131e-01 0.0000000000000000e+00  -3.1281083623565853e-02 -1.7900816988616797e+00 0.0000000000000000e+00  -9.9448055031429936e-03 -5.6577360229613050e-01 0.0000000000000000e+00  -4.1973942309951762e-03 -1.7931674344919188e+00 0.0000000000000000e+00  -4.0933905045816461e-02 -1.7159403516073037e+00 0.0000000000000000e+00  7.6540122676017712e-04 1.5852896463872270e-04 0.0000000000000000e+00  2.8196800585519989e-03 -1.0329374567773874e-03 0.0000000000000000e+00  1.0910739067923224e-01 2.9874247749321174e+00 0.0000000000000000e+00  2.7227630900214000e-01 -1.1306519868436222e+00 0.0000000000000000e+00  6.1368424106147165e-02 -1.5379265924239566e-01 0.0000000000000000e+00  2.0067199797430799e-01 -7.1733727228287902e-01 0.0000000000000000e+00  8.9039097295492073e-02 -3.2539315206364999e-01 0.0000000000000000e+00  4.7917315274489941e-04 -7.6940913613333614e-04 0.0000000000000000e+00  1.3253358386099280e-03 -4.1679334785492879e-05 0.0000000000000000e+00  7.2017975651584903e-04 -1.0179930976950511e-03 0.0000000000000000e+00  -1.7146679263296196e-03 -2.6269367630995914e-04 0.0000000000000000e+00  7.2101861086084346e-05 3.0730060337073813e-04 0.0000000000000000e+00  -5.6077384045610074e-04 -7.8094309213016600e-04 0.0000000000000000e+00  2.6211750327163395e-03 6.9345970198161878e-04 0.0000000000000000e+00  -1.1550382615460861e-01 -1.2470119175362808e+00 0.0000000000000000e+00  2.6089201254411921e-02 1.7404782825920102e+00 0.0000000000000000e+00  -1.5702421327257088e-01 2.2045176128604568e-02 0.0000000000000000e+00  -7.7213053343524653e-03 -1.4114562721021870e+00 0.0000000000000000e+00  1.0287930280996728e-01 2.2231778993830336e+00 0.0000000000000000e+00  -1.3371288008406690e-01 -1.3402989047312568e+00 0.0000000000000000e+00  -3.6128677597759801e-01 -1.0433379088859185e+00 0.0000000000000000e+00  -7.8001442153279388e-01 -4.3194965606479474e-01 0.0000000000000000e+00  -1.2036976906380364e-01 1.7588975431476408e+00 0.0000000000000000e+00  1.0522803811143875e-02 -1.7246973316575955e+00 0.0000000000000000e+00  -2.8427267050423954e-01 -3.1179343922512970e-01 0.0000000000000000e+00  1.8484488668899485e-01 -1.0571925699552547e+00 0.0000000000000000e+00  -1.1306303825425454e-01 1.1808656598637091e+00 0.0000000000000000e+00  -5.2317527937677177e-01 1.2343697554941035e+00 0.0000000000000000e+00  3.3892509658220001e-02 3.9154825099172469e-01 0.0000000000000000e+00  -4.9854536517526166e-02 7.0413301884747637e-01 0.0000000000000000e+00  -5.1821693624068930e-02 9.2142984982815446e-01 0.0000000000000000e+00  7.1167840697258622e-01 -1.5312897756584198e+00 0.0000000000000000e+00  4.9020457170626563e-01 -1.0195153335744331e+00 0.0000000000000000e+00  5.3700812056973324e-01 1.5142678279620925e+00 0.0000000000000000e+00  -2.3872746454393520e-02 4.3766132526110074e-01 0.0000000000000000e+00  2.0087159475659447e-01 8.3850773781889709e-02 0.0000000000000000e+00  -6.2130834153890042e-02 -1.0091611587343841e+00 0.0000000000000000e+00  1.2007981277196026e-02 -1.9725438097209502e+00 0.0000000000000000e+00  2.1745292221707027e-02 -1.8478666170813931e+00 0.0000000000000000e+00  4.1792919699650280e-02 3.9654010053841460e-01 0.0000000000000000e+00  -2.5858287255115832e-03 -8.6181726666474745e-01 0.0000000000000000e+00  -4.3614943107204665e-02 1.8054873189366849e+00 0.0000000000000000e+00  2.6889093283976432e-02 1.5832496520782864e+00 0.0000000000000000e+00  1.1216292936393818e-02 -1.8968850144159433e+00 0.0000000000000000e+00  1.0611414209535240e-01 -7.0780195691495584e-01 0.0000000000000000e+00  -3.9200854366100081e-02 1.1270024278107229e+00 0.0000000000000000e+00  2.3446344246434350e-02 -1.6074904509736700e+00 0.0000000000000000e+00  -1.4774983129007194e-02 5.5857501355612316e-01 0.0000000000000000e+00  -8.9377372580025996e-02 1.8667578321062805e+00 0.0000000000000000e+00  -2.3840778657233535e-02 -1.4352190232432755e+00 0.0000000000000000e+00  5.3606746074982232e-02 -1.5190169512437381e+00 0.0000000000000000e+00  -6.2495857737603258e-02 -1.2412458678392237e+00 0.0000000000000000e+00  1.7385623461639910e-01 2.5047042324358610e+00 0.0000000000000000e+00  6.9798771926147996e-01 -9.9448085638912706e-02 0.0000000000000000e+00  1.1303996677762986e+00 2.1277452048956844e+00 0.0000000000000000e+00  1.0096338809083766e-01 -7.9205845598051938e-01 0.0000000000000000e+00  4.5653979590946261e-02 -3.4457276852233992e-01 0.0000000000000000e+00  -5.3979445480138133e-01 2.7464573860957984e+00 0.0000000000000000e+00  -2.8513027302347782e-02 1.8398231329384707e+00 0.0000000000000000e+00  1.3472012030809173e+00 -4.3570991573279838e-01 0.0000000000000000e+00  3.6561682742924664e-02 6.3907331575218762e-01 0.0000000000000000e+00  -6.3149403448022820e-02 -1.0977262862714054e+00 0.0000000000000000e+00  -1.0729209979876119e-02 -1.2244080175816456e+00 0.0000000000000000e+00  -1.5648308293664279e+00 -3.8228565203544801e-01 0.0000000000000000e+00  -7.8919967947462907e-02 -9.7622694605033122e-01 0.0000000000000000e+00  -1.0418826867812551e-01 4.7626569925351453e-01 0.0000000000000000e+00  4.5232413574829586e-02 2.2423522099152424e+00 0.0000000000000000e+00  2.7135975195109824e-01 -1.3913927612387200e+00 0.0000000000000000e+00  9.9323779404419638e-02 5.0119687024763659e-01 0.0000000000000000e+00  -5.8072314301057332e-02 -1.7641548925494799e+00 0.0000000000000000e+00  1.2397117154841478e-01 -1.7237392920109422e+00 0.0000000000000000e+00  3.8092414726135548e-01 2.4246472946269835e+00 0.0000000000000000e+00  -3.0249713438431497e-01 2.1456236025386120e+00 0.0000000000000000e+00  -8.2392278161998933e-01 1.7076011024701363e+00 0.0000000000000000e+00  2.0240860038048671e-02 -1.8206003964825828e+00 0.0000000000000000e+00  1.8714060506938798e-02 1.9540446123277511e+00 0.0000000000000000e+00  6.0800213045170666e-03 -4.7712003749371806e-01 0.0000000000000000e+00  -8.3305028994040908e-02 -1.5562481501839285e+00 0.0000000000000000e+00  1.7672480848970704e-02 1.7421934578100124e+00 0.0000000000000000e+00  -6.5596598504635450e-02 6.4412600631516981e-01 0.0000000000000000e+00  -8.2470184152219447e-02 -4.8989472925438177e-01 0.0000000000000000e+00  2.2424230240964061e-02 1.8626678590692909e+00 0.0000000000000000e+00  6.9029676432866293e-04 7.3205268541260218e-04 0.0000000000000000e+00  2.4092008992416353e-01 -4.6943717359260784e-01 0.0000000000000000e+00  -2.2165802988608020e-02 1.4539647294053553e+00 0.0000000000000000e+00  9.7479894428982403e-02 -4.1229102091439024e-01 0.0000000000000000e+00  4.6206530105113552e-02 7.1442682574379290e-01 0.0000000000000000e+00  -6.8075636973235728e-05 4.8363655392605082e-04 0.0000000000000000e+00  6.5179996551075453e-02 -1.8190677047827746e+00 0.0000000000000000e+00  2.0852995691449147e-02 -1.8657506292692958e+00 0.0000000000000000e+00  -1.5806492995747771e-02 2.5090321221359235e+00 0.0000000000000000e+00  6.7642934658350515e-02 1.8555478756927737e+00 0.0000000000000000e+00  6.0793111424694644e-02 1.6591818170727193e+00 0.0000000000000000e+00  6.7058467606361333e-02 -1.8790907565886883e+00 0.0000000000000000e+00  6.2751164527667366e-02 -1.3982501776455141e+00 0.0000000000000000e+00  4.0887877480256990e-02 1.8487017789610172e+00 0.0000000000000000e+00  7.4951737427457754e-02 8.6270703767581614e-01 0.0000000000000000e+00  -1.8225854483394519e-01 -5.8853483137690253e-02 0.0000000000000000e+00  -3.2960130162425967e-06 -1.9101404809216671e-05 0.0000000000000000e+00  -9.1664789914855868e-03 -1.8096251523248306e+00 0.0000000000000000e+00  -9.0689435459980036e-04 8.0012259794893039e-04 0.0000000000000000e+00  -2.1740163828747040e-02 1.5973718683280118e+00 0.0000000000000000e+00  1.2590460763283878e-01 -1.2481630131044512e+00 0.0000000000000000e+00  6.4641496205604485e-02 1.2884740795363043e+00 0.0000000000000000e+00  -2.1113059810029289e-01 1.6548395324814133e-01 0.0000000000000000e+00  -3.0675917727930513e-01 -1.2760248011857531e+00 0.0000000000000000e+00  -6.5868861285645550e-03 2.2111318890943635e-04 0.0000000000000000e+00  -5.5625757967179112e-02 -9.2502147464919948e-01 0.0000000000000000e+00  2.3820093407047179e-03 -7.3334154300897847e-01 0.0000000000000000e+00  3.1373596617796685e-02 5.9824192013244404e-01 0.0000000000000000e+00  -2.4491008930463859e-04 5.4321240150992140e-04 0.0000000000000000e+00  2.7889748785573332e-01 1.1331286897697070e+00 0.0000000000000000e+00  2.0547603022304339e-01 1.6695614572945077e+00 0.0000000000000000e+00  5.2170287376821303e-04 -2.5888817511991356e-04 0.0000000000000000e+00  -8.4494099334768402e-01 7.9355504388076548e-01 0.0000000000000000e+00  -1.4836225885342886e+00 9.1274497555424128e-01 0.0000000000000000e+00  -2.1956662020068385e-01 -3.4719388693233155e-01 0.0000000000000000e+00  6.6393036149472651e-01 1.2477517692863125e+00 0.0000000000000000e+00  4.5023291186910924e-02 1.0603528055498354e-01 0.0000000000000000e+00  3.9131847390989238e-02 1.6690464439924950e+00 0.0000000000000000e+00  -5.3796370243542592e-02 5.2031889604688020e-01 0.0000000000000000e+00  9.3315662463992977e-02 -1.0998927672670620e+00 0.0000000000000000e+00  2.3012346838277034e-01 3.5659647840473352e-01 0.0000000000000000e+00  9.8672804839785113e-04 8.1362325569223651e-05 0.0000000000000000e+00  -1.3985126695277225e-01 -1.4040585425278764e+00 0.0000000000000000e+00  1.1209952707223541e-04 5.6210605909380444e-04 0.0000000000000000e+00  -2.6872156877626681e-02 -3.0460962127350721e-01 0.0000000000000000e+00  -8.8373515031726510e-02 -1.7000092304147776e+00 0.0000000000000000e+00  -1.2571116707638114e-01 1.7351207501036208e+00 0.0000000000000000e+00  1.8187501134686488e-03 1.7186399701106200e-04 0.0000000000000000e+00  4.7642150159717817e-01 -1.3145674375751162e-01 0.0000000000000000e+00  -3.9338858974783134e-02 8.3935720899666422e-01 0.0000000000000000e+00  6.1180827494128315e-02 -1.7518303476331765e+00 0.0000000000000000e+00  -8.9576868525240105e-02 -1.2734259301063779e+00 0.0000000000000000e+00  -3.6864661358959377e-01 1.2444346110253270e+00 0.0000000000000000e+00  4.2542035014965340e-02 -1.4149061641099574e+00 0.0000000000000000e+00  -1.0680416573460515e-01 1.7372004338246134e+00 0.0000000000000000e+00  -1.0452845204013270e-01 1.7153047056564403e+00 0.0000000000000000e+00  1.4663501263065259e-01 5.1475120663881646e-01 0.0000000000000000e+00  -1.1668929511827107e-01 1.5960631939439296e+00 0.0000000000000000e+00  1.1692678498282569e-02 1.7857605816907174e+00 0.0000000000000000e+00  2.3224240281653982e-02 1.2686500747566912e-01 0.0000000000000000e+00  5.5781413180581975e-02 -1.8642662241075454e+00 0.0000000000000000e+00  -1.3429990030465072e-01 1.5344023804101290e+00 0.0000000000000000e+00  5.7380073848810990e-02 -1.5201995094436240e+00 0.0000000000000000e+00  2.3301219078808861e-04 -8.9461331718683360e-04 0.0000000000000000e+00  1.7811502125885142e-02 -1.1737823145789132e+00 0.0000000000000000e+00  3.3626456112105735e-01 8.8959220587551968e-01 0.0000000000000000e+00  -1.1017395596253950e-01 -4.9540943985379410e-01 0.0000000000000000e+00  -2.6182834332939674e-03 1.3655489549630824e+00 0.0000000000000000e+00  -2.3988101585451141e-01 5.7497633386194091e-01 0.0000000000000000e+00  5.3905811333790549e-02 2.7710961216180835e-01 0.0000000000000000e+00  -5.8141565768981135e-02 4.2017506716525532e-01 0.0000000000000000e+00  7.4937926006386508e-04 7.6544575822994044e