<?xml version="1.0"?>
<VTKFile type="UnstructuredGrid"  version="0.1"  >
<UnstructuredGrid>
<Piece  NumberOfPoints="5185" NumberOfCells="10070">
<Points>
<DataArray  type="Float64"  NumberOfComponents="3"  format="ascii">0 1.5 0  0 0 0  0.1232405621108402 0 0  0.1232405621108402 0.02253860454731437 0  0.1476111412843772 0.06045996594834066 0  0.1886148129381372 0.07918571535047463 0  0.2332332010401509 0.07277055962836147 0  0.2673002826264945 0.0432512653964478 0  0.28 0 0  0.5342215165449864 0 0  0.5342215165449864 0.02394141003279682 0  0.5649999999999999 0.06062177826491071 0  0.6121553724366851 0.06893654271085457 0  0.6536231110183285 0.04499513267805775 0  0.6699999999999999 0 0  0.91 0 0  0.9220577136594005 0.04499999999999999 0  0.9550000000000001 0.07794228634059948 0  1 0.09 0  1.045 0.07794228634059946 0  1.077942286340599 0.04499999999999999 0  1.09 0 0  1.52324056211084 0 0  1.52324056211084 0.02253860454731437 0  1.547611141284377 0.06045996594834066 0  1.588614812938137 0.07918571535047463 0  1.633233201040151 0.07277055962836147 0  1.667300282626495 0.0432512653964478 0  1.68 0 0  1.84 0 0  1.857573593128807 0.04242640687119285 0  1.9 0.06 0  1.942426406871193 0.04242640687119285 0  1.96 0 0  2.22324056211084 0 0  2.22324056211084 0.02253860454731437 0  2.247611141284377 0.06045996594834066 0  2.288614812938137 0.07918571535047463 0  2.333233201040151 0.07277055962836147 0  2.367300282626494 0.0432512653964478 0  2.38 0 0  2.534221516544986 0 0  2.534221516544986 0.02394141003279682 0  2.565 0.06062177826491071 0  2.612155372436685 0.06893654271085457 0  2.653623111018328 0.04499513267805775 0  2.67 0 0  3 0 0  3 1.5 0  0 0.75 0  1.5 1.5 0  0 0.375 0  0.75 1.5 0  2.25 1.5 0  3 0.75 0  1.216228490499689 0.8069757125887627 0  1.965682393638027 0.8065702515463131 0  0.6025408912810675 0.8974591087189325 0  2.494676348647751 0.9946763486477508 0  2.356709259621435 0.5447946099875809 0  0.8599642199210003 0.5226206461323684 0  0.4216394361293908 0.4974105777134379 0  0.375 1.5 0  0 1.125 0  1.875 1.5 0  1.591091407334617 1.058091082812092 0  1.125 1.5 0  1.590810830624645 0.5394732912049653 0  0.9375 1.13479915923725 0  3 0.375 0  3 1.125 0  2.625 1.5 0  1.995245765771775 0.4277948434396763 0  2.145880954246818 1.137688199332401 0  1.227783477957362 0.427141979786574 0  2.705436295205127 0.5625 0  1.268702849688826 1.133996222613609 0  0.3526676910824388 1.147332308917561 0  0.3097907151415997 0.7889144057821572 0  0.903221947180751 0.828141240074398 0  0.6461527570085278 1.190944174645022 0  2.258488242757536 0.8210127920483788 0  2.400058919161888 1.260760484185309 0  2.778889354513028 0.9375 0  2.725079155390203 1.225079155390203 0  1.853608154101008 1.201589046866999 0  2.540576981905353 0.3370046821869876 0  0.7811555507088518 0.2732832036972447 0  1.493222576519009 0.798835058995101 0  1.747409300790817 0.3184283662481822 0  1.459899526511598 0.3067772450698331 0  0.1875 1.5 0  0 0.5625 0  2.521594883841638 0.7403247928378012 0  0.2438476629309629 0.32244155773108 0  3 0.1875 0  2.776470677837637 0.28125 0  2.121241022911138 0.6281701698960991 0  1.728545483402697 0.8581016441191361 0  1.012422318322288 0.3271268474523591 0  2.305755967143385 0.3144626442661202 0  1.30662028105542 0 0  1.6875 1.5 0  1.8265892939935 0.6051726401583923 0  0.5458598773451642 0.2962606377138959 0  0 0.9375 0  1.349377516922966 0.6209336375388498 0  1.079656249611334 0.612728400373996 0  0.7151087041654347 0.6989529576230681 0  2.0625 1.5 0  1.59375 1.288981971791887 0  2.085107439753329 0.2191742438537923 0  0.6402689932842839 0.4934943541428904 0  1.228474271256239 0.2064231070567615 0  1.3125 1.5 0  1.06968030723948 0.9647793670181679 0  0.2113350105157037 0.5332932754427466 0  0 1.3125 0  0.5051540211699285 0.7110632261327643 0  0.4775171365050886 1.316467280173536 0  1.967112413780365 1.020384154410382 0  0.8191736043349165 1.304781661824189 0  1.103455205015878 1.280328263155604 0  0.7649318329201844 1.023310716596371 0  0.2120544860962804 0.9823800432730223 0  1.359100570345391 0.9517705003379791 0  0.1711043107784345 1.21875 0  3 1.3125 0  2.8125 1.5 0  2.714178691455841 0.7554813872281284 0  2.217815962767571 1.313132398873298 0  2.020480176543968 1.307095379623413 0  2.29875620117699 1.013690599387144 0  0.3848285295772316 0.1937040883803935 0  0.9375 1.5 0  3 0.9375 0  2.4375 1.5 0  3 0.5625 0  0 0.1875 0  0.5625 1.5 0  2.835 0 0  1.386383673099448 1.305536509588035 0  1.773513842966063 1.0362399691084 0  2.179843036592861 0.4515211056338026 0  0.4134910794700652 0.9582824971065591 0  2.107214813096467 0.9125353945687058 0  1.916698009609654 0.2702971158297667 0  2.533006985360663 0.5155509623987015 0  2.838574938309606 0.4465309273225452 0  0.3016597101560133 1.338635596991575 0  1.641573393474498 0.7066136805426366 0  2.855238878880983 0.65625 0  1.398074618385877 0.1459865472102536 0  1.756539173374812 1.342993235461221 0  2.434593137832078 0.2067018044975929 0  1.434366740555482 0.4743139981449843 0  1.440742946818836 1.142108619191562 0  0.549043549720087 1.055391704395 0  2.571565919072277 1.32487216700893 0  2.535776521770127 1.159155922815097 0  2.652193336606067 1.04269083214613 0  0.660031172970541 1.35825582857438 0  2.607645482283307 0.8780318994093907 0  1.09590027081365 1.121554905778777 0  0.1474979543625655 0.8283466240195498 0  1.056776372361757 0.7739494406659941 0  0.3647560414155882 0.6427945145874604 0  1.699724067482516 1.17405657891935 0  0.913786173488833 0.9822051271795349 0  0.9283491691592597 0.66876089182342 0  0.7498959802087029 0.8498501951910959 0  0.3951228082283652 0.3465404522808934 0  1.23887612906836 1.360760366473919 0  0.1206420558503055 0.65625 0  1.735537276557186 0.4760109437618505 0  1.799297742536812 0.1791526413061006 0  1.970987958006469 0.6541756362249113 0  1.080810552147559 0.461742062484039 0  2.268149337929528 0.6688757993926466 0  2.413602460817152 0.8574959373397593 0  2.833998248858927 1.096635576389 0  2.71875 1.378451438260757 0  2.001906612723158 1.162230131308666 0  2.859452984352005 0.8083820929207302 0  2.688478120768856 0.4086214703657035 0  1.214106348747711 0.9519545202622776 0  2.850368184690094 1.307066142740315 0  1.864893983840636 0.9141560734025058 0  1.60661446108863 0.2395589708587393 0  1.61163060570479 0.3901968276506504 0  2.771867619212225 0.1335769833684914 0  0.7969119039620236 1.163109784140262 0  0.9599416701963486 1.276596315583475 0  2.103624150445193 0.7698297553089299 0  2.279721363034605 1.185280797873663 0  2.34375 1.392122382816539 0  0.1382307077648764 1.361769292235123 0  0.1426478344893104 0.2175212356047023 0  2.406413880432258 1.104106228251116 0  2.414971181397263 0.4111042519521358 0  2.637277274673136 0.2192348292007474 0  1.353600469573883 0.7646239317376279 0  1.494012125944227 0.651091825511382 0  1.590274899157226 0.9102986199774393 0  1.028633500752755 1.396325660524358 0  1.829615743479497 0.7518128394998403 0  1.861059000344659 0.3963812297683985 0  0.510900777690535 1.185277566959035 0  1.213080286311768 0.6640546084318578 0  0.79 0 0  0.8167897395818556 0.1376517357725223 0  0.9319739747594649 0.2144569310211157 0  1.889188139713804 1.330032757791382 0  0.655714683266079 0.2049689967103183 0  2.09162028105542 0 0  0.1359367774292784 0.4137345801986589 0  0.4380798275211911 0.8267965724704243 0  2.40400705830434 0.6721965963037969 0  0.3027633520173528 0.4394586980387968 0  0.8782788855287165 0.379708545377904 0  0.7595213470930909 0.4371189613680841 0  1.317967779309324 0.3170637160852436 0  0.6053759621699666 0.6225641226781395 0  0.6530309552265516 0.3661735489900947 0  2.594089294631991 0.631328821944253 0  0 1.03125 0  0.1304283746114646 1.089970844689444 0  0.4071107582724932 0 0  1.469526282978338 1.017083854458662 0  1.088959023533499 0.2104112015424126 0  1.161808378403757 0.3165749773273478 0  2.172966779463329 0.3188379172988492 0  2.216343768168092 0.1920401700474863 0  3 0.09375 0  1.905024675365066 0.5108806275986008 0  1.702014103004408 0.5963171944847371 0  0.2428042557945101 0.6514309613450368 0  3 1.40625 0  0.262372466757009 0.191725613649506 0  2.116791485436391 1.387145016777417 0  1.96875 1.5 0  2.885528053432104 0.3345800153572822 0  2.875601419873791 0.2042517854891826 0  2.298911783255236 0.4400662366556407 0  2.459247322083259 1.363881377923602 0  0.9735587139454543 0.5585353431007029 0  1.176315140569268 0.5379697839544898 0  2.0296370010214 0.5459700999805513 0  0.4987416453488727 0.4060939323248423 0  0.5397511702990104 0.1771676763212877 0  3 1.21875 0  2.238710633113112 0.5542203056099733 0  1.19831014052771 0 0  1.583962270593198 1.173633921912192 0  1.650563144166832 1.390075718520202 0  1.496025571730155 1.371899864460592 0  3 1.03125 0  2.887481932992674 0.9890041589451042 0  0.247836885460272 1.094286258989912 0  0.4719220056590702 0.6009044603312741 0  1.97565550452845 0.1615660574331665 0  2.131135530378305 0.1108580974478677 0  1.318642333542132 0.5051755928544708 0  1.217460132329928 1.242599824876711 0  1.511891312109549 0.1714963794002952 0  2.174601400318987 1.01685942781215 0  0.9082882406313817 1.384236564302014 0  0.6140422604397168 0.7728109899968187 0  0.8289359680247524 0.7347587321432018 0  0.741509926624258 0.5729763888559004 0  2.058356323822746 0.3313153147701495 0  0.4534336320756143 0.1034622594748756 0  1.40625 1.5 0  1.689084537897351 0.9628079283127213 0  1.156270839633873 0.1228556218721798 0  1.29033806179015 0.1118395069726669 0  1.460859151915469 0.9057320169622244 0  2.326558662668462 0.1831424028173474 0  0.9693052477371982 0.4460054238200853 0  0.6625304018229865 1.076650755704414 0  1.41493042158313 0 0  0.4485426513928407 1.096421738127594 0  0.2454589766548061 0.8778352103982039 0  0.1115239912906509 0.9339683416032414 0  1.134782462834443 0.8782884736059876 0  0.9999448991609674 1.04695529392896 0  0.9835215815673453 0.9000292002687431 0  2.53125 1.5 0  0.3175564878698739 1.010319294269645 0  1.971944763694389 0.9134401013848152 0  2.06
[...]
<PointData  Vectors="f_60"> 
<DataArray  type="Float64"  Name="f_60"  NumberOfComponents="3" format="ascii">-9.9042133722385004e-05 -3.2426106043260814e-04 0.0000000000000000e+00  3.7399354860356022e-06 1.3273592220077506e-04 0.0000000000000000e+00  8.4212837771065175e-04 9.4203755656414932e-04 0.0000000000000000e+00  1.5466422627451916e-04 8.6729842579407520e-04 0.0000000000000000e+00  -5.5656787802762500e-04 6.3077714964007161e-04 0.0000000000000000e+00  3.9073571473374654e-05 8.3240730367483199e-04 0.0000000000000000e+00  -4.0821406920958577e-04 8.6851501312716997e-04 0.0000000000000000e+00  1.2423613170151114e-05 6.2068392764221241e-04 0.0000000000000000e+00  5.3903167747709616e-04 3.2114943593575869e-04 0.0000000000000000e+00  -3.2642239025740342e-04 3.9644369428852084e-04 0.0000000000000000e+00  2.0371653465491550e-04 7.3089733657500961e-04 0.0000000000000000e+00  -4.3876206143411533e-06 8.2309316362443627e-04 0.0000000000000000e+00  2.1270292402964815e-04 2.5317328150956147e-04 0.0000000000000000e+00  -1.5308588951939547e-04 8.0803505041471399e-04 0.0000000000000000e+00  1.4569845694650948e-04 4.7622257324176080e-04 0.0000000000000000e+00  -5.7684872446377719e-04 9.5963858864182036e-04 0.0000000000000000e+00  -5.7084462314188253e-04 1.0063618141244318e-03 0.0000000000000000e+00  -4.3470409917576847e-06 9.4255219683308719e-04 0.0000000000000000e+00  -2.2430729021440652e-04 1.0792913574159790e-03 0.0000000000000000e+00  2.3834587421476172e-04 6.2244924358445313e-04 0.0000000000000000e+00  -5.1910367159428228e-04 9.3635018301760646e-04 0.0000000000000000e+00  -5.2436009393797337e-04 6.3414803153217353e-04 0.0000000000000000e+00  -5.8901833850857931e-04 8.4728294029780659e-05 0.0000000000000000e+00  -5.1348591747595929e-04 4.9891880554218428e-04 0.0000000000000000e+00  -1.5720458174374544e-04 9.9395268210668731e-04 0.0000000000000000e+00  -7.8298919913255218e-05 1.2594466652237394e-03 0.0000000000000000e+00  4.4205419290585844e-04 7.9033006489223092e-04 0.0000000000000000e+00  2.1624982525104885e-04 7.4141726193917789e-04 0.0000000000000000e+00  -3.9490198163983118e-04 1.0874630162418693e-03 0.0000000000000000e+00  6.5789253391483011e-05 1.7282905495904829e-04 0.0000000000000000e+00  4.2493842763004301e-04 4.8226443365533331e-04 0.0000000000000000e+00  -2.0852466315138138e-05 9.2525595540920102e-04 0.0000000000000000e+00  3.4235729191218973e-04 7.2880672208696956e-04 0.0000000000000000e+00  1.6626698733351137e-04 5.7732254060620521e-04 0.0000000000000000e+00  5.9185453964328086e-04 5.6910787138917632e-04 0.0000000000000000e+00  4.7068508029393208e-04 8.1553207180944109e-04 0.0000000000000000e+00  1.0402414927004256e-05 8.1522144614838460e-04 0.0000000000000000e+00  2.3209921527252863e-04 8.6983339044672755e-04 0.0000000000000000e+00  -2.5418211428767615e-04 6.3125371886157315e-04 0.0000000000000000e+00  2.7383919257054431e-04 1.4131884811470331e-03 0.0000000000000000e+00  7.6892479775160386e-04 2.1497591968769317e-04 0.0000000000000000e+00  7.8271983271267602e-04 5.9748557476122096e-04 0.0000000000000000e+00  8.2095372070484511e-04 7.7915366423149911e-04 0.0000000000000000e+00  1.0984418771265393e-03 1.0162205443732407e-03 0.0000000000000000e+00  -1.2605463663602171e-04 -3.8494129386844078e-04 0.0000000000000000e+00  -3.8246907394427803e-04 1.7926436060979023e-03 0.0000000000000000e+00  1.1505684552587489e-03 -5.8188758915346879e-05 0.0000000000000000e+00  -1.4767082827214504e-02 -1.3058527935829178e-03 0.0000000000000000e+00  -1.6313695835594652e-03 2.9428645397254255e-04 0.0000000000000000e+00  -2.8568168009056013e-05 -3.7177248002494006e-06 0.0000000000000000e+00  1.1090207957333175e-04 -7.4741484312873920e-04 0.0000000000000000e+00  1.5795573407876486e-05 3.1060240748134580e-05 0.0000000000000000e+00  4.3119852136171963e-04 -3.2624583511389136e-04 0.0000000000000000e+00  -3.5219677158897114e-05 -4.5502003164877631e-04 0.0000000000000000e+00  6.2413703357630263e-04 -8.1482169171783356e-05 0.0000000000000000e+00  1.6792510755426042e-03 1.7327175331402596e+00 0.0000000000000000e+00  2.2447188368016562e-02 -1.4565683641391660e+00 0.0000000000000000e+00  -1.4742170211739168e-02 1.7652972426119535e+00 0.0000000000000000e+00  2.7489911458323196e-01 1.9700032220053168e-01 0.0000000000000000e+00  -1.3046700732400904e-01 1.7177470937870183e+00 0.0000000000000000e+00  4.7424028451720709e-02 1.1606339587626993e+00 0.0000000000000000e+00  7.4807249644399831e-02 -1.4867912263674998e+00 0.0000000000000000e+00  3.0331566818344083e-04 -8.2568278467123619e-04 0.0000000000000000e+00  1.7076017504896915e-06 -3.7152133468010413e-05 0.0000000000000000e+00  1.4941219189632866e-04 -7.8523384907425544e-04 0.0000000000000000e+00  -7.0602165281463706e-03 -5.1087665215563194e-01 0.0000000000000000e+00  1.1680103180233391e-04 -7.3934950231366553e-04 0.0000000000000000e+00  5.9222092420596756e-03 -4.7667960420475253e-01 0.0000000000000000e+00  -7.8517852615369088e-02 1.2285720033574692e+00 0.0000000000000000e+00  -3.2745775128848586e-03 -1.9457066697323877e-04 0.0000000000000000e+00  1.5809352053530667e-03 -2.5958781447258642e-05 0.0000000000000000e+00  2.4965548343127981e-04 -6.2741086605769541e-04 0.0000000000000000e+00  -9.3126672503232769e-02 -7.5377649792301238e-01 0.0000000000000000e+00  1.6683596525527261e-01 1.4104690778082090e+00 0.0000000000000000e+00  4.5038383223113869e-02 1.5545971540505965e+00 0.0000000000000000e+00  -2.4656354436810426e-01 2.7520704350418703e+00 0.0000000000000000e+00  -6.0291368612267554e-02 2.1543749411059063e-01 0.0000000000000000e+00  -5.7165882768257029e-02 7.2826207858396108e-01 0.0000000000000000e+00  1.0926365594379501e-02 1.7042918801552989e+00 0.0000000000000000e+00  -3.7346068989041479e-03 1.7928870456629775e+00 0.0000000000000000e+00  -8.9959466602672164e-02 9.4161062304684773e-01 0.0000000000000000e+00  4.2427169607690954e-02 -1.3197220220320813e+00 0.0000000000000000e+00  4.2373329995335368e-01 2.0901815699464970e+00 0.0000000000000000e+00  3.7389048689625975e-01 1.3994181070578262e+00 0.0000000000000000e+00  9.5248199440458758e-01 2.6274406469537515e+00 0.0000000000000000e+00  3.4809966088538861e-02 9.2547106704985305e-01 0.0000000000000000e+00  -5.7258395291271946e-01 -1.1437232070111818e+00 0.0000000000000000e+00  6.5975909495441909e-02 -1.4781872263286366e+00 0.0000000000000000e+00  9.1643583992167266e-03 1.8588726700624416e+00 0.0000000000000000e+00  -3.6452398959545648e-02 9.3052085430309395e-01 0.0000000000000000e+00  2.9092348735676513e-02 1.1924934220824377e+00 0.0000000000000000e+00  3.6530689449486308e-04 -6.3597778348277456e-04 0.0000000000000000e+00  -5.3150995106033368e-06 -1.3868883528323059e-06 0.0000000000000000e+00  -4.0792424690282506e-02 -6.9229132027701279e-01 0.0000000000000000e+00  1.0757005305756107e-01 5.8691613650323449e-01 0.0000000000000000e+00  -9.7573611893050083e-03 -2.6877752941215317e-03 0.0000000000000000e+00  -1.0825852036701284e+00 7.9657698916009934e-02 0.0000000000000000e+00  -2.5908293055285192e-02 1.9422125336457272e+00 0.0000000000000000e+00  2.2013115818854189e-02 2.5920036875287067e-01 0.0000000000000000e+00  4.5997392904355713e-02 -1.2178912460737836e+00 0.0000000000000000e+00  -2.7337837009831784e-01 -1.3780600548774474e-01 0.0000000000000000e+00  -6.7431240388965408e-04 7.8672929126573962e-04 0.0000000000000000e+00  2.5396432240630410e-04 -7.5521833397715636e-04 0.0000000000000000e+00  -7.0357210401264612e-03 1.6955944336867885e+00 0.0000000000000000e+00  1.0187612510284563e-01 6.2124435552493906e-01 0.0000000000000000e+00  -3.4754187021378243e-08 -2.4355911299209285e-06 0.0000000000000000e+00  3.0854428520219988e-02 -1.7351235873793389e+00 0.0000000000000000e+00  3.9140931489685532e-02 -1.4556411082186484e+00 0.0000000000000000e+00  3.5257020094193847e-02 -1.3307166169878926e+00 0.0000000000000000e+00  -1.1171865771372874e-03 -6.8759432704600305e-04 0.0000000000000000e+00  -2.7899522599287206e-02 -6.6703839336221360e-01 0.0000000000000000e+00  -1.6690151800013545e-01 1.8967643089430439e+00 0.0000000000000000e+00  5.8242373043319140e-02 1.2001176753787239e+00 0.0000000000000000e+00  8.1558180230089664e-02 1.5243663692789660e+00 0.0000000000000000e+00  -3.9512656299975585e-04 -5.9679476925656133e-04 0.0000000000000000e+00  -1.6331104677397124e-02 -1.6151871219798666e+00 0.0000000000000000e+00  4.8106126736949625e-02 -5.9313402151387651e-01 0.0000000000000000e+00  6.1580215315758309e-05 -2.1521419126302441e-04 0.0000000000000000e+00  3.4336638024605522e-02 -7.8381041765316717e-01 0.0000000000000000e+00  -1.3207175628354581e-01 -1.4207022745738525e+00 0.0000000000000000e+00  6.7728287665502387e-02 -1.4983089431213141e+00 0.0000000000000000e+00  -1.6187354667003206e-01 -9.8915213544709849e-02 0.0000000000000000e+00  -1.2638275844447672e-01 -6.7073829022326281e-01 0.0000000000000000e+00  -3.0719991227347088e-02 -1.7026980588454184e+00 0.0000000000000000e+00  -9.3895716991099394e-03 -5.3926677528644851e-01 0.0000000000000000e+00  -4.8291448090329167e-03 -1.7041359395441247e+00 0.0000000000000000e+00  -4.0025485861117399e-02 -1.6342210836791979e+00 0.0000000000000000e+00  8.3025885359660990e-04 2.8900961484965812e-04 0.0000000000000000e+00  2.7287612593886301e-03 -1.0284192381364839e-03 0.0000000000000000e+00  9.7373427182889855e-02 2.8439967414257552e+00 0.0000000000000000e+00  2.5948033694315525e-01 -1.0882227539328886e+00 0.0000000000000000e+00  5.8775109153693363e-02 -1.3835967735011925e-01 0.0000000000000000e+00  1.9238795233800091e-01 -6.6445683915988163e-01 0.0000000000000000e+00  8.2950071382688978e-02 -3.2121264855004344e-01 0.0000000000000000e+00  4.8043592485485289e-04 -7.5742954269252558e-04 0.0000000000000000e+00  1.3459566418628126e-03 -2.7550718606983410e-05 0.0000000000000000e+00  7.6630632228254854e-04 -1.0078225851411248e-03 0.0000000000000000e+00  -1.4508928170368118e-03 -2.4407530449698165e-04 0.0000000000000000e+00  7.1227601966784471e-05 2.9060073426860123e-04 0.0000000000000000e+00  -5.8005344220017434e-04 -7.7260666090339246e-04 0.0000000000000000e+00  2.6008352613243321e-03 8.0005361112504597e-04 0.0000000000000000e+00  -1.1089437017515538e-01 -1.1918171189838833e+00 0.0000000000000000e+00  2.4977540190654162e-02 1.6544775237675482e+00 0.0000000000000000e+00  -1.4859894388428688e-01 3.5325105036336700e-02 0.0000000000000000e+00  -8.0738607225609316e-03 -1.3406587665337766e+00 0.0000000000000000e+00  9.6551215248494762e-02 2.1115640169166232e+00 0.0000000000000000e+00  -1.2651028039003526e-01 -1.2685985479760027e+00 0.0000000000000000e+00  -3.3799095935852491e-01 -9.8816968139797279e-01 0.0000000000000000e+00  -7.3304454905188787e-01 -4.2583681451401639e-01 0.0000000000000000e+00  -1.1278024634276464e-01 1.6743417962626732e+00 0.0000000000000000e+00  1.0021726911430400e-02 -1.6390539741971311e+00 0.0000000000000000e+00  -2.6012275413352182e-01 -3.0294402142909183e-01 0.0000000000000000e+00  1.7483520536618521e-01 -1.0002895339594700e+00 0.0000000000000000e+00  -1.0501336530094792e-01 1.1196491302200404e+00 0.0000000000000000e+00  -4.9849701561926946e-01 1.2176033760023448e+00 0.0000000000000000e+00  3.1366600725185899e-02 3.7533505185637889e-01 0.0000000000000000e+00  -4.6968859390571507e-02 6.6493009905342193e-01 0.0000000000000000e+00  -4.8461817828039627e-02 8.7183953740702236e-01 0.0000000000000000e+00  6.7899201292978473e-01 -1.4416050875958066e+00 0.0000000000000000e+00  4.7119510825760147e-01 -9.9020778028927769e-01 0.0000000000000000e+00  5.0952545555158002e-01 1.4824601481408479e+00 0.0000000000000000e+00  -2.3801875742552176e-02 4.2571958548694966e-01 0.0000000000000000e+00  1.9422573760117065e-01 9.7599051255961036e-02 0.0000000000000000e+00  -5.9585858131684745e-02 -9.6459659295639655e-01 0.0000000000000000e+00  1.0960166491802269e-02 -1.8747274126902875e+00 0.0000000000000000e+00  1.9768394026079033e-02 -1.7560565448202956e+00 0.0000000000000000e+00  3.9866989493661457e-02 3.7253398775956076e-01 0.0000000000000000e+00  -2.8358594175874738e-03 -8.1914376352889906e-01 0.0000000000000000e+00  -4.0277105345877570e-02 1.7166809159801160e+00 0.0000000000000000e+00  2.5951986522410819e-02 1.5029946744214495e+00 0.0000000000000000e+00  9.6835615415333150e-03 -1.8028168201644610e+00 0.0000000000000000e+00  1.0049954620099846e-01 -6.8283823352086559e-01 0.0000000000000000e+00  -3.7474026570039426e-02 1.0796802656028615e+00 0.0000000000000000e+00  2.1732351297107363e-02 -1.5287899276892067e+00 0.0000000000000000e+00  -1.4748500229649566e-02 5.2993498744781142e-01 0.0000000000000000e+00  -8.2796570240940545e-02 1.7723546731935136e+00 0.0000000000000000e+00  -2.1770781404453078e-02 -1.3642422001440533e+00 0.0000000000000000e+00  5.0665347794773538e-02 -1.4406827894790364e+00 0.0000000000000000e+00  -5.7212735616559436e-02 -1.1809111648813575e+00 0.0000000000000000e+00  1.6135638738639632e-01 2.3784817602563852e+00 0.0000000000000000e+00  6.7125908022871494e-01 -1.3705001576136386e-01 0.0000000000000000e+00  1.0872046657133898e+00 2.0382034769536554e+00 0.0000000000000000e+00  9.5903551847796392e-02 -7.4367662799209799e-01 0.0000000000000000e+00  5.4703997187380435e-02 -3.2645896253126061e-01 0.0000000000000000e+00  -5.1959271805478691e-01 2.6295941352539960e+00 0.0000000000000000e+00  -2.6184362962074510e-02 1.7488281519386462e+00 0.0000000000000000e+00  1.2866159247282518e+00 -4.8817958068311856e-01 0.0000000000000000e+00  3.5079762945861320e-02 6.0437118077878726e-01 0.0000000000000000e+00  -5.9564400615235887e-02 -1.0413919554604425e+00 0.0000000000000000e+00  -1.0279862794675614e-02 -1.1632774071393193e+00 0.0000000000000000e+00  -1.4872351026477344e+00 -2.9165334971368190e-01 0.0000000000000000e+00  -7.5453869894388570e-02 -9.3506132742403991e-01 0.0000000000000000e+00  -9.8371699883274571e-02 4.6324387103512921e-01 0.0000000000000000e+00  4.1069770364186832e-02 2.1313410019942780e+00 0.0000000000000000e+00  2.5951053992438150e-01 -1.3068867751127569e+00 0.0000000000000000e+00  1.0148803524299389e-01 4.9940584678724420e-01 0.0000000000000000e+00  -5.3937282032414914e-02 -1.6706586226508473e+00 0.0000000000000000e+00  1.1669261521443031e-01 -1.6407562764016705e+00 0.0000000000000000e+00  3.5938721490371589e-01 2.3032263663434676e+00 0.0000000000000000e+00  -2.8965530413188750e-01 2.0603420180677121e+00 0.0000000000000000e+00  -7.8928859188148270e-01 1.5741380767928597e+00 0.0000000000000000e+00  1.8550254388705310e-02 -1.7300575462620460e+00 0.0000000000000000e+00  1.7684609835388079e-02 1.8576107764155732e+00 0.0000000000000000e+00  5.8793379565835746e-03 -4.5359111203434915e-01 0.0000000000000000e+00  -7.5209645016782414e-02 -1.4698549895023916e+00 0.0000000000000000e+00  1.6419756136737379e-02 1.6554532168302942e+00 0.0000000000000000e+00  -6.2414027108456081e-02 6.1920757089233402e-01 0.0000000000000000e+00  -7.8270635325978416e-02 -4.7375755951612708e-01 0.0000000000000000e+00  2.1717917395658960e-02 1.7694391941393472e+00 0.0000000000000000e+00  7.0120648954386737e-04 7.3132488413835031e-04 0.0000000000000000e+00  2.2739642840630664e-01 -4.3693865727112818e-01 0.0000000000000000e+00  -2.1052089827199041e-02 1.3791602112979622e+00 0.0000000000000000e+00  9.2128242379883832e-02 -3.9578773554426727e-01 0.0000000000000000e+00  4.2623475726094727e-02 6.7188550373082223e-01 0.0000000000000000e+00  -8.6379530718778204e-05 4.9434183747318154e-04 0.0000000000000000e+00  6.0507594420178015e-02 -1.7296913470082751e+00 0.0000000000000000e+00  1.8918515851475786e-02 -1.7736739452168973e+00 0.0000000000000000e+00  -1.9034344502487838e-02 2.3883265833026197e+00 0.0000000000000000e+00  6.5442849932282027e-02 1.7626427360456272e+00 0.0000000000000000e+00  5.6680928158181147e-02 1.5791142097633870e+00 0.0000000000000000e+00  6.2962111940096308e-02 -1.7855840469971380e+00 0.0000000000000000e+00  5.9265011680831460e-02 -1.3341315654920765e+00 0.0000000000000000e+00  3.9444396773395257e-02 1.7563792435362797e+00 0.0000000000000000e+00  7.1165270739306355e-02 8.1308239184998565e-01 0.0000000000000000e+00  -1.7179988399848031e-01 -7.0353620049081675e-02 0.0000000000000000e+00  -2.9092169557969977e-06 -1.6311169927687912e-05 0.0000000000000000e+00  -9.4900025036702522e-03 -1.7200348996868899e+00 0.0000000000000000e+00  -8.9888712448567883e-04 7.9130351586707154e-04 0.0000000000000000e+00  -2.0082949017917510e-02 1.5167220562183543e+00 0.0000000000000000e+00  1.1857049541301391e-01 -1.1809431852337224e+00 0.0000000000000000e+00  6.2738104855372609e-02 1.2294662133865235e+00 0.0000000000000000e+00  -2.0072973247281814e-01 1.7669314089925189e-01 0.0000000000000000e+00  -2.9313335500974441e-01 -1.2041380910170030e+00 0.0000000000000000e+00  -7.7666364069907115e-03 2.2352498161377405e-04 0.0000000000000000e+00  -5.2006850171676271e-02 -8.7563910308752069e-01 0.0000000000000000e+00  2.0836702426049450e-03 -6.9685480932025257e-01 0.0000000000000000e+00  3.0086419241699351e-02 5.7121109947440396e-01 0.0000000000000000e+00  -3.0652684961302240e-04 5.4716917732601858e-04 0.0000000000000000e+00  2.6180359430458255e-01 1.0903555629052044e+00 0.0000000000000000e+00  1.9693606423473142e-01 1.5862706622881826e+00 0.0000000000000000e+00  5.1733241629473980e-04 -2.7285703158512600e-04 0.0000000000000000e+00  -8.4896788915172117e-01 6.9121076980090446e-01 0.0000000000000000e+00  -1.4204212490045229e+00 7.1578563919554705e-01 0.0000000000000000e+00  -2.0888169643291343e-01 -3.4839050832867424e-01 0.0000000000000000e+00  6.3209206627616377e-01 1.1493597957212527e+00 0.0000000000000000e+00  4.2592278191438744e-02 9.6664694402181964e-02 0.0000000000000000e+00  3.7495290958914233e-02 1.5880187614721686e+00 0.0000000000000000e+00  -5.1857539739575818e-02 4.8963606116771607e-01 0.0000000000000000e+00  8.7829728364893125e-02 -1.0390326336989040e+00 0.0000000000000000e+00  2.1645619290957108e-01 3.5187657054768923e-01 0.0000000000000000e+00  1.1469370546442704e-03 9.2204720555349477e-05 0.0000000000000000e+00  -1.3046123633433773e-01 -1.3330969610136862e+00 0.0000000000000000e+00  1.1950946370196922e-04 5.7219493075147735e-04 0.0000000000000000e+00  -2.5470230201685557e-02 -2.8628970271254039e-01 0.0000000000000000e+00  -8.2802612108208939e-02 -1.6086005108086525e+00 0.0000000000000000e+00  -1.1898066384028397e-01 1.6514499934355817e+00 0.0000000000000000e+00  1.7654943113547862e-03 1.3603319600319119e-04 0.0000000000000000e+00  4.6385101039235305e-01 -1.0071575102018221e-01 0.0000000000000000e+00  -3.6643545779872333e-02 7.9451977201888224e-01 0.0000000000000000e+00  5.7282189071109310e-02 -1.6630309694350007e+00 0.0000000000000000e+00  -8.8782056734175857e-02 -1.2191224939511860e+00 0.0000000000000000e+00  -3.4870059330708825e-01 1.2014658386695101e+00 0.0000000000000000e+00  3.9985731489061149e-02 -1.3475846537168439e+00 0.0000000000000000e+00  -9.9977914421205710e-02 1.6545357220716250e+00 0.0000000000000000e+00  -9.6043179040728788e-02 1.6290070518730948e+00 0.0000000000000000e+00  1.4008069605212087e-01 4.7658101330029790e-01 0.0000000000000000e+00  -1.1237568461846446e-01 1.5233363349878606e+00 0.0000000000000000e+00  1.1885030557347010e-02 1.6964461501043850e+00 0.0000000000000000e+00  2.2026081540281191e-02 1.2251309847185843e-01 0.0000000000000000e+00  5.2292502853369657e-02 -1.7730274232441543e+00 0.0000000000000000e+00  -1.2877907507693567e-01 1.4500782531858800e+00 0.0000000000000000e+00  5.7959952629460923e-02 -1.4516648678115638e+00 0.0000000000000000e+00  2.4604373207144729e-04 -8.7573639539418517e-04 0.0000000000000000e+00  1.6625781963904265e-02 -1.1142010882159468e+00 0.0000000000000000e+00  3.1548453871431176e-01 8.6034535144490187e-01 0.0000000000000000e+00  -1.0225295095866810e-01 -4.7668190425738710e-01 0.0000000000000000e+00  -2.2417773360634816e-03 1.2975534130436290e+00 0.0000000000000000e+00  -2.3006990361129484e-01 5.2249741958119322e-01 0.0000000000000000e+00  5.0787209288559357e-02 2.5875714823196166e-01 0.0000000000000000e+00  -5.4768917411885290e-02 4.0452959027202795e-01 0.0000000000000000e+00  7.3282162384103106e-04 7.5536909524068446e