<?xml version="1.0"?>
<VTKFile type="UnstructuredGrid"  version="0.1"  >
<UnstructuredGrid>
<Piece  NumberOfPoints="5185" NumberOfCells="10070">
<Points>
<DataArray  type="Float64"  NumberOfComponents="3"  format="ascii">0 1.5 0  0 0 0  0.1232405621108402 0 0  0.1232405621108402 0.02253860454731437 0  0.1476111412843772 0.06045996594834066 0  0.1886148129381372 0.07918571535047463 0  0.2332332010401509 0.07277055962836147 0  0.2673002826264945 0.0432512653964478 0  0.28 0 0  0.5342215165449864 0 0  0.5342215165449864 0.02394141003279682 0  0.5649999999999999 0.06062177826491071 0  0.6121553724366851 0.06893654271085457 0  0.6536231110183285 0.04499513267805775 0  0.6699999999999999 0 0  0.91 0 0  0.9220577136594005 0.04499999999999999 0  0.9550000000000001 0.07794228634059948 0  1 0.09 0  1.045 0.07794228634059946 0  1.077942286340599 0.04499999999999999 0  1.09 0 0  1.52324056211084 0 0  1.52324056211084 0.02253860454731437 0  1.547611141284377 0.06045996594834066 0  1.588614812938137 0.07918571535047463 0  1.633233201040151 0.07277055962836147 0  1.667300282626495 0.0432512653964478 0  1.68 0 0  1.84 0 0  1.857573593128807 0.04242640687119285 0  1.9 0.06 0  1.942426406871193 0.04242640687119285 0  1.96 0 0  2.22324056211084 0 0  2.22324056211084 0.02253860454731437 0  2.247611141284377 0.06045996594834066 0  2.288614812938137 0.07918571535047463 0  2.333233201040151 0.07277055962836147 0  2.367300282626494 0.0432512653964478 0  2.38 0 0  2.534221516544986 0 0  2.534221516544986 0.02394141003279682 0  2.565 0.06062177826491071 0  2.612155372436685 0.06893654271085457 0  2.653623111018328 0.04499513267805775 0  2.67 0 0  3 0 0  3 1.5 0  0 0.75 0  1.5 1.5 0  0 0.375 0  0.75 1.5 0  2.25 1.5 0  3 0.75 0  1.216228490499689 0.8069757125887627 0  1.965682393638027 0.8065702515463131 0  0.6025408912810675 0.8974591087189325 0  2.494676348647751 0.9946763486477508 0  2.356709259621435 0.5447946099875809 0  0.8599642199210003 0.5226206461323684 0  0.4216394361293908 0.4974105777134379 0  0.375 1.5 0  0 1.125 0  1.875 1.5 0  1.591091407334617 1.058091082812092 0  1.125 1.5 0  1.590810830624645 0.5394732912049653 0  0.9375 1.13479915923725 0  3 0.375 0  3 1.125 0  2.625 1.5 0  1.995245765771775 0.4277948434396763 0  2.145880954246818 1.137688199332401 0  1.227783477957362 0.427141979786574 0  2.705436295205127 0.5625 0  1.268702849688826 1.133996222613609 0  0.3526676910824388 1.147332308917561 0  0.3097907151415997 0.7889144057821572 0  0.903221947180751 0.828141240074398 0  0.6461527570085278 1.190944174645022 0  2.258488242757536 0.8210127920483788 0  2.400058919161888 1.260760484185309 0  2.778889354513028 0.9375 0  2.725079155390203 1.225079155390203 0  1.853608154101008 1.201589046866999 0  2.540576981905353 0.3370046821869876 0  0.7811555507088518 0.2732832036972447 0  1.493222576519009 0.798835058995101 0  1.747409300790817 0.3184283662481822 0  1.459899526511598 0.3067772450698331 0  0.1875 1.5 0  0 0.5625 0  2.521594883841638 0.7403247928378012 0  0.2438476629309629 0.32244155773108 0  3 0.1875 0  2.776470677837637 0.28125 0  2.121241022911138 0.6281701698960991 0  1.728545483402697 0.8581016441191361 0  1.012422318322288 0.3271268474523591 0  2.305755967143385 0.3144626442661202 0  1.30662028105542 0 0  1.6875 1.5 0  1.8265892939935 0.6051726401583923 0  0.5458598773451642 0.2962606377138959 0  0 0.9375 0  1.349377516922966 0.6209336375388498 0  1.079656249611334 0.612728400373996 0  0.7151087041654347 0.6989529576230681 0  2.0625 1.5 0  1.59375 1.288981971791887 0  2.085107439753329 0.2191742438537923 0  0.6402689932842839 0.4934943541428904 0  1.228474271256239 0.2064231070567615 0  1.3125 1.5 0  1.06968030723948 0.9647793670181679 0  0.2113350105157037 0.5332932754427466 0  0 1.3125 0  0.5051540211699285 0.7110632261327643 0  0.4775171365050886 1.316467280173536 0  1.967112413780365 1.020384154410382 0  0.8191736043349165 1.304781661824189 0  1.103455205015878 1.280328263155604 0  0.7649318329201844 1.023310716596371 0  0.2120544860962804 0.9823800432730223 0  1.359100570345391 0.9517705003379791 0  0.1711043107784345 1.21875 0  3 1.3125 0  2.8125 1.5 0  2.714178691455841 0.7554813872281284 0  2.217815962767571 1.313132398873298 0  2.020480176543968 1.307095379623413 0  2.29875620117699 1.013690599387144 0  0.3848285295772316 0.1937040883803935 0  0.9375 1.5 0  3 0.9375 0  2.4375 1.5 0  3 0.5625 0  0 0.1875 0  0.5625 1.5 0  2.835 0 0  1.386383673099448 1.305536509588035 0  1.773513842966063 1.0362399691084 0  2.179843036592861 0.4515211056338026 0  0.4134910794700652 0.9582824971065591 0  2.107214813096467 0.9125353945687058 0  1.916698009609654 0.2702971158297667 0  2.533006985360663 0.5155509623987015 0  2.838574938309606 0.4465309273225452 0  0.3016597101560133 1.338635596991575 0  1.641573393474498 0.7066136805426366 0  2.855238878880983 0.65625 0  1.398074618385877 0.1459865472102536 0  1.756539173374812 1.342993235461221 0  2.434593137832078 0.2067018044975929 0  1.434366740555482 0.4743139981449843 0  1.440742946818836 1.142108619191562 0  0.549043549720087 1.055391704395 0  2.571565919072277 1.32487216700893 0  2.535776521770127 1.159155922815097 0  2.652193336606067 1.04269083214613 0  0.660031172970541 1.35825582857438 0  2.607645482283307 0.8780318994093907 0  1.09590027081365 1.121554905778777 0  0.1474979543625655 0.8283466240195498 0  1.056776372361757 0.7739494406659941 0  0.3647560414155882 0.6427945145874604 0  1.699724067482516 1.17405657891935 0  0.913786173488833 0.9822051271795349 0  0.9283491691592597 0.66876089182342 0  0.7498959802087029 0.8498501951910959 0  0.3951228082283652 0.3465404522808934 0  1.23887612906836 1.360760366473919 0  0.1206420558503055 0.65625 0  1.735537276557186 0.4760109437618505 0  1.799297742536812 0.1791526413061006 0  1.970987958006469 0.6541756362249113 0  1.080810552147559 0.461742062484039 0  2.268149337929528 0.6688757993926466 0  2.413602460817152 0.8574959373397593 0  2.833998248858927 1.096635576389 0  2.71875 1.378451438260757 0  2.001906612723158 1.162230131308666 0  2.859452984352005 0.8083820929207302 0  2.688478120768856 0.4086214703657035 0  1.214106348747711 0.9519545202622776 0  2.850368184690094 1.307066142740315 0  1.864893983840636 0.9141560734025058 0  1.60661446108863 0.2395589708587393 0  1.61163060570479 0.3901968276506504 0  2.771867619212225 0.1335769833684914 0  0.7969119039620236 1.163109784140262 0  0.9599416701963486 1.276596315583475 0  2.103624150445193 0.7698297553089299 0  2.279721363034605 1.185280797873663 0  2.34375 1.392122382816539 0  0.1382307077648764 1.361769292235123 0  0.1426478344893104 0.2175212356047023 0  2.406413880432258 1.104106228251116 0  2.414971181397263 0.4111042519521358 0  2.637277274673136 0.2192348292007474 0  1.353600469573883 0.7646239317376279 0  1.494012125944227 0.651091825511382 0  1.590274899157226 0.9102986199774393 0  1.028633500752755 1.396325660524358 0  1.829615743479497 0.7518128394998403 0  1.861059000344659 0.3963812297683985 0  0.510900777690535 1.185277566959035 0  1.213080286311768 0.6640546084318578 0  0.79 0 0  0.8167897395818556 0.1376517357725223 0  0.9319739747594649 0.2144569310211157 0  1.889188139713804 1.330032757791382 0  0.655714683266079 0.2049689967103183 0  2.09162028105542 0 0  0.1359367774292784 0.4137345801986589 0  0.4380798275211911 0.8267965724704243 0  2.40400705830434 0.6721965963037969 0  0.3027633520173528 0.4394586980387968 0  0.8782788855287165 0.379708545377904 0  0.7595213470930909 0.4371189613680841 0  1.317967779309324 0.3170637160852436 0  0.6053759621699666 0.6225641226781395 0  0.6530309552265516 0.3661735489900947 0  2.594089294631991 0.631328821944253 0  0 1.03125 0  0.1304283746114646 1.089970844689444 0  0.4071107582724932 0 0  1.469526282978338 1.017083854458662 0  1.088959023533499 0.2104112015424126 0  1.161808378403757 0.3165749773273478 0  2.172966779463329 0.3188379172988492 0  2.216343768168092 0.1920401700474863 0  3 0.09375 0  1.905024675365066 0.5108806275986008 0  1.702014103004408 0.5963171944847371 0  0.2428042557945101 0.6514309613450368 0  3 1.40625 0  0.262372466757009 0.191725613649506 0  2.116791485436391 1.387145016777417 0  1.96875 1.5 0  2.885528053432104 0.3345800153572822 0  2.875601419873791 0.2042517854891826 0  2.298911783255236 0.4400662366556407 0  2.459247322083259 1.363881377923602 0  0.9735587139454543 0.5585353431007029 0  1.176315140569268 0.5379697839544898 0  2.0296370010214 0.5459700999805513 0  0.4987416453488727 0.4060939323248423 0  0.5397511702990104 0.1771676763212877 0  3 1.21875 0  2.238710633113112 0.5542203056099733 0  1.19831014052771 0 0  1.583962270593198 1.173633921912192 0  1.650563144166832 1.390075718520202 0  1.496025571730155 1.371899864460592 0  3 1.03125 0  2.887481932992674 0.9890041589451042 0  0.247836885460272 1.094286258989912 0  0.4719220056590702 0.6009044603312741 0  1.97565550452845 0.1615660574331665 0  2.131135530378305 0.1108580974478677 0  1.318642333542132 0.5051755928544708 0  1.217460132329928 1.242599824876711 0  1.511891312109549 0.1714963794002952 0  2.174601400318987 1.01685942781215 0  0.9082882406313817 1.384236564302014 0  0.6140422604397168 0.7728109899968187 0  0.8289359680247524 0.7347587321432018 0  0.741509926624258 0.5729763888559004 0  2.058356323822746 0.3313153147701495 0  0.4534336320756143 0.1034622594748756 0  1.40625 1.5 0  1.689084537897351 0.9628079283127213 0  1.156270839633873 0.1228556218721798 0  1.29033806179015 0.1118395069726669 0  1.460859151915469 0.9057320169622244 0  2.326558662668462 0.1831424028173474 0  0.9693052477371982 0.4460054238200853 0  0.6625304018229865 1.076650755704414 0  1.41493042158313 0 0  0.4485426513928407 1.096421738127594 0  0.2454589766548061 0.8778352103982039 0  0.1115239912906509 0.9339683416032414 0  1.134782462834443 0.8782884736059876 0  0.9999448991609674 1.04695529392896 0  0.9835215815673453 0.9000292002687431 0  2.53125 1.5 0  0.3175564878698739 1.010319294269645 0  1.971944763694389 0.9134401013848152 0  2.06
[...]
<PointData  Scalars="f_66"> 
<DataArray  type="Float64"  Name="f_66"  format="ascii">1.1400015416492513e+01  -2.9777709318087034e+01  -2.7144827594445754e+01  -2.6760891358910989e+01  -2.5427674415542814e+01  -2.4996205833999102e+01  -2.6469370343219591e+01  -2.7825580931404797e+01  -2.9644993954823331e+01  -2.6126659929067166e+01  -2.5709597186792934e+01  -2.5879640459779289e+01  -2.5810372707565509e+01  -2.5534305358357262e+01  -2.5868290795857622e+01  -2.6989714775051237e+01  -2.5291819094076065e+01  -2.3783079844665064e+01  -2.2167793014211320e+01  -2.1721209987905539e+01  -2.3106932000191421e+01  -2.4156972153067535e+01  -2.4641318323115538e+01  -2.3632893846064743e+01  -2.1978439670501555e+01  -2.0205339837500670e+01  -1.9359117149795889e+01  -2.0260254762379301e+01  -2.1175937015399157e+01  -2.2692669814365679e+01  -2.0582852523897447e+01  -1.8455056827770303e+01  -1.8026528352019671e+01  -1.8531059698835467e+01  -1.7402040995672479e+01  -1.7088074525246491e+01  -1.5519593883499464e+01  -1.4768445081289947e+01  -1.5461220719032294e+01  -1.6420242113949534e+01  -1.8036991236819944e+01  -1.3940230174301165e+01  -1.3623233429120932e+01  -1.2051204100935685e+01  -1.1318669856931972e+01  -1.1570359692973895e+01  -1.2796109213452242e+01  0.0000000000000000e+00  0.0000000000000000e+00  -9.6916837094333435e+00  1.5028476482077707e+01  -1.9473945973719093e+01  1.0316452422285083e+01  1.2138605229336308e+01  0.0000000000000000e+00  -4.3238101595333056e+00  -1.9897687949009559e+00  -3.9967647721598341e+00  2.1611365974968222e+00  -5.4809327044259106e+00  -1.2597548342519659e+01  -1.4770813026517876e+01  1.0779781199344143e+01  2.8463738353043833e-01  1.4029079248467617e+01  2.8050818517109954e+00  1.2625547940747825e+01  -9.4228315091578558e+00  2.9466862076362887e+00  0.0000000000000000e+00  0.0000000000000000e+00  1.0915779609894740e+01  -1.0018386267330335e+01  5.3023763964858910e+00  -1.3587996993865893e+01  -2.7030749418355700e+00  3.8388492401009526e+00  1.6628596644467060e+00  -7.6687414935394465e+00  -4.8047319861181075e+00  3.5432587001915223e+00  -9.2729428280339887e-01  7.3223385247802231e+00  7.8272925630684687e-01  4.1883306067526984e+00  6.6493751172704947e+00  -7.4428776449419010e+00  -1.9198916217234842e+01  -3.6308741749536759e+00  -1.3897371883535506e+01  -1.5611364470213829e+01  9.3567370769220588e+00  -1.4652888839353032e+01  -1.5602741223344183e+00  -1.9833338319819795e+01  0.0000000000000000e+00  -4.8368725114494833e+00  -5.1564117443901987e+00  -1.5226190301010103e+00  -1.6889639990748169e+01  -1.0239211359734053e+01  -2.2912705523957769e+01  1.2841610712065435e+01  -6.9217712244588494e+00  -1.9500168406603120e+01  -4.7045441091726312e+00  -8.3990615212080613e+00  -9.5649724832817213e+00  -8.6573837763599197e+00  1.5008851678620996e+01  8.3630725714011973e+00  -1.4050635133722176e+01  -1.4118583002277864e+01  -1.9042469981230507e+01  1.2146776932735332e+01  -8.9721789320311029e-01  -1.4589188035807659e+01  5.2393557818319136e+00  -9.0421423681856155e+00  6.2368979179379425e+00  2.6583825512875805e+00  6.8576812157849139e+00  7.0077301309605007e+00  -3.4237208855435802e-01  -2.9534619024138515e+00  -3.6205920217636778e-01  3.0613601695511612e+00  0.0000000000000000e+00  6.7444491399790287e+00  -7.8514545256247037e-01  9.0542036509596748e+00  9.1802216218540025e+00  2.7235216665110484e+00  -2.2656052183460030e+01  1.3224740147851177e+01  0.0000000000000000e+00  1.3662996954860661e+01  0.0000000000000000e+00  -2.4049924092472374e+01  1.2235737115076997e+01  -6.7029808922862397e+00  8.3255819759314775e+00  2.6839577808233175e+00  -8.4138354508622548e+00  -3.0061644527304554e+00  5.6601245576061754e-01  -1.4031426762819159e+01  -4.7071416188620017e+00  -2.3138841135469850e+00  6.4585788747108888e+00  -5.3043993182514981e+00  -8.9308493616915008e-01  -1.9883039956996825e+01  9.9612019185615832e+00  -1.1222969575250474e+01  -1.1626565715260957e+01  4.4654541286434961e+00  -1.5563363439408337e-01  7.4637172378669865e+00  4.7029090770993136e+00  2.3985775081207064e+00  7.8162877319885098e+00  4.4367348784120614e-01  3.0549720950654260e+00  -7.1573574788451468e+00  -5.6556346366767185e+00  -1.1243567160163096e+01  5.7789831514802019e+00  -9.2821494689603234e-01  -8.6976430180072555e+00  -4.7449422098036962e+00  -1.8712966634260180e+01  9.4283374906872304e+00  -1.1741270141598125e+01  -1.0272133360217151e+01  -1.6959172523484835e+01  -5.2422917190825427e+00  -1.3294446995319715e+01  -3.7085147578411175e+00  -1.3415917076735758e-02  1.7357198177288533e+00  6.9349504126679413e+00  5.8483709801660639e+00  -8.8966982395227642e-02  -4.5870815533408109e+00  -7.8072463989561280e-01  3.4150097948798677e+00  1.0352603766238674e-01  -1.6515604194199515e+01  -1.2878376420859583e+01  -7.0222482548658434e+00  3.2508927360375721e+00  6.5503227109163431e+00  -2.3538313625395744e+00  6.1479580818547541e+00  1.0539561688641745e+01  6.5946948898275819e+00  -2.2706421594387056e+01  4.2392011640940899e+00  -7.4404649255907120e+00  -8.0995505581939913e+00  -4.9063622284540038e+00  -7.1474277489627376e+00  -6.9631371962505784e-01  9.6080767518957142e+00  -3.6245578865178674e+00  -1.1478516285701906e+01  3.0265530440179149e+00  -7.8323426219332815e+00  -2.5010749163786802e+01  -2.2517211509659788e+01  -2.0056200887054576e+01  9.7129131914984725e+00  -2.1467301824866944e+01  -2.0417876863215536e+01  -1.7914490636239666e+01  -6.2969549911120035e+00  -3.0644876528286447e+00  -1.6659591421104164e+01  -1.6119217652051343e+01  -1.5121375721147349e+01  -1.5946382504246856e+01  -1.0959830793706699e+01  -1.7319858902001624e+01  -2.6607529428126475e+00  -2.1997210890733507e+00  -3.5585177487877961e-01  -2.6435495399025626e+01  1.5176225428207444e+00  -1.9403632233203073e+01  -1.6564634074266028e+01  -1.1218088827850559e+01  -1.3576375274596833e+01  0.0000000000000000e+00  -8.6731672428150794e+00  -7.6332685683958106e+00  -1.1438696064344239e+01  0.0000000000000000e+00  -2.3089282330246569e+01  1.1151098048922675e+01  1.2748904752069880e+01  -2.3056906365428578e+00  -3.5056023415220881e+00  -7.8114413145137984e+00  9.2171180619159649e+00  -1.1286247394359750e+01  -1.1058907728847482e+01  -7.2856797715129300e+00  -1.6844587175046144e+01  -2.2600612082472960e+01  0.0000000000000000e+00  -6.0201311163409894e+00  -2.5489910203882875e+01  5.5549898831152076e+00  1.0829609255850519e+01  1.0335520550282983e+01  0.0000000000000000e+00  7.5294762513928781e-01  3.4690747825393956e-02  -1.1960272108145492e+01  -1.6058861508724636e+01  -1.6254475298279068e+01  -1.1328185040894612e+01  6.3863564801581312e+00  -1.8771460177894706e+01  2.7691562035447914e+00  9.2449533152604193e+00  -7.1188275225080400e+00  -7.3842017685206569e+00  -1.1749337576178473e+01  -1.1742428009165057e+01  -2.4473370957501668e+01  1.2750186868188223e+01  7.9320195861376697e-01  -2.1386523274500874e+01  -2.1118012541667063e+01  -1.1780709566264429e+00  -1.2819373454795818e+01  -1.4107009340556411e+01  7.0923608113305014e-01  -2.3199674754832849e+01  6.1223111175098277e-01  -5.5709195098385909e+00  -4.4929337197841299e+00  -2.8346862311897758e+00  9.3924202982462779e-01  -2.7597391447038908e+00  1.0632197737314925e+01  -1.9413341742973094e+00  3.3128722268940808e-01  3.8942924974220707e+00  4.5894239492787650e+00  -1.5366941374219545e+01  9.6725281320241550e+00  8.2752396510474957e-01  -1.3886305601007269e+01  -2.1796007841042339e+01  6.9626440171523729e+00  2.6770219046926109e+00  7.2628788881259618e+00  -2.4917562641990312e+00  -1.1478534832031522e+00  7.9344474351463257e+00  3.9461586161100102e+00  5.6350595324245667e+00  -3.1613817019200909e+00  -1.0142879345157446e+01  4.6043627795477979e+00  7.7751996740311402e-01  -4.7638055736821627e+00  -1.2989191766723550e+01  -2.0049704472591112e+00  6.1957384428714795e+00  1.0402121636508078e+01  8.8269564860003822e+00  5.1458274427992459e+00  2.2906851054519781e+00  9.9561610311565174e-01  0.0000000000000000e+00  4.9340150097632520e+00  -2.6362207559794975e+01  1.2501232223629464e+00  -2.5874437989545527e+00  -9.4374278311288808e+00  -2.3061991828036370e+00  -9.3790047643872949e+00  -3.5784908112533533e+00  9.6468825321818308e+00  8.4481824139248598e+00  -1.6339751801321199e+01  -5.4949341766592887e+00  -8.9766104396685584e+00  4.4235170870622236e+00  3.9142097083252190e+00  1.1220714153333926e+01  -1.3287122261329735e+01  -1.7550557359704932e+01  4.8247589385651795e+00  -5.2174861870031961e+00  -4.0718412434984153e+00  4.3287009088219657e+00  -8.7187212272504500e+00  3.6117102970088708e+00  8.0134029406978744e+00  7.6821555492245892e+00  2.5944235412992818e+00  2.5017415034666262e+00  1.1868062723705039e+01  -2.0326313672799447e+01  -1.3124823273599141e+01  -6.4157743059261101e+00  1.2522050076163934e+01  -1.4030391966154756e+01  -2.5682100168536120e+01  9.6685055527029444e+00  7.7612594634120136e+00  6.2497294146981230e-01  2.7524773739796458e+00  4.3757115285806938e+00  2.5061833645596279e+00  1.3759478529211930e-02  -1.8121584777630626e+00  -7.7175892396840240e-01  -2.6254914602216370e+00  -7.2394015095475295e+00  -2.0583158968111032e+01  -2.0988687100226571e+01  0.0000000000000000e+00  2.7833489824372548e-01  -9.6761597908515817e+00  -1.9717706460610017e+01  1.3889455784727522e+00  8.5260806065113606e+00  7.0744705384867572e+00  1.1260430809097921e+01  -1.7502055980225613e+01  -2.4713117803188585e+01  -4.1280081840257061e+00  5.5355010796785056e+00  1.3683828392773449e+00  -2.3142820586076745e+01  -1.5258616366219258e+00  1.1125869363574886e+01  1.3753915682159576e+01  1.1065777806688331e+01  1.4277132371213009e+01  -1.7083845555853465e+01  -1.2190994328820590e+01  -7.2165217017491790e+00  1.1932346318523280e+01  0.0000000000000000e+00  0.0000000000000000e+00  1.3234699679349092e+01  1.1940620538829346e+01  1.5364742207571030e+01  1.4427811489603785e+01  -9.4980371728578810e+00  -8.6876802088178700e+00  -6.8418154352036744e+00  -5.1859830338906416e+00  -1.5016546134045552e+00  -7.9518120961337735e-01  -6.6935850261967280e+00  3.4830994030302405e+00  4.6355576383121040e+00  1.6801033162802581e+00  7.1226081752837933e+00  9.2533934318079858e+00  -2.2169244107585082e+00  5.9722338340165637e-01  -1.0372146104775119e+01  6.1156498415004368e-01  -3.7111015655617989e+00  -6.4897960289573726e+00  -5.6420473039854917e+00  -6.3365187359498680e+00  -5.6707255469618163e+00  8.0891492271286420e+00  7.2253293440166324e+00  5.2043136976331557e+00  -2.6030724914220174e+00  -1.6196499713110345e+01  1.6714781484004297e+00  -7.4472530581167273e-01  -1.6779661148171718e+00  -3.4997044731169811e+00  -1.3090465387422097e+00  -1.4024874493322791e+01  -1.2066328006091812e+01  -1.3600268898737903e+01  -4.1164810947985613e+00  -2.1604246503608451e+01  -8.9693201929833499e+00  -6.7554739431890143e+00  -9.5563401674721646e+00  -7.3600320507444188e+00  -9.4231475474750113e+00  -1.7833056398951033e+01  1.8078008550405631e+00  3.0838985867292514e+00  -1.4903414541699345e+01  -8.9785528288423446e+00  -5.9224006115717822e+00  -6.9244068304589901e-01  -2.8385567733321793e-01  3.9318015785908367e+00  4.3328327166173928e+00  6.3532055393902267e+00  -1.3473767638672477e+01  -3.8344273415263777e+00  1.5291681342905463e+00  5.0926347968963990e+00  1.1954115629935144e+01  -1.0103104320166262e+01  1.4112983153935039e+00  2.3270342895240379e+00  5.5735864280901204e+00  3.5964894514258985e+00  -9.7474202680196527e+00  5.9051526641720651e+00  -1.8319727904582319e+01  -1.7781231149659860e+01  4.2431550723843694e+00  -1.0735781824613420e+01  -2.1681003062751540e+01  1.7414025365952190e+00  -1.3562388171917512e+00  -1.6092161021992840e+01  -1.5471241429831293e+01  -1.6916422729654796e+00  -6.4009323610076088e+00  -8.0461295433417774e+00  9.4344924310192158e-01  -1.6982510937265680e+01  3.3124684360897159e+00  -5.0389716661462307e+00  8.9622930101433926e+00  -1.3329435362461568e+01  -4.8425683688675365e+00  8.8350001507327800e+00  -1.1423631273754612e+01  -1.0894419727534920e+01  -1.2387950931428783e+01  -2.1137408827992701e+01  5.9002708126569106e+00  -2.0353850094649093e+01  -3.3327646684175734e+00  -1.9166128542465920e+01  -1.4483773820157626e+01  -1.2002047297751806e+01  1.0251898827458284e+01  -1.9218956835106667e+01  2.2304561523645391e-01  1.1548645854845637e+01  -2.2588523069740461e+01  2.5128879647425628e+00  -5.9327275614579078e-01  -3.4549676155004322e-01  2.9602678779932856e+00  8.6361996920240696e+00  1.4228938946073217e+00  7.7693681716793117e+00  -1.8724460744858433e+01  5.7695690725812652e+00  -7.0248788437649701e+00  8.0768401402267802e+00  1.1410506256268551e+01  1.2677016058366855e+00  4.4716424050789421e+00  -2.0337503949757746e+01  -2.4289123084384090e+00  -2.0526379031961625e+01  -2.8096721537949187e-01  7.6845924662114822e+00  5.5251578971760944e+00  -2.2623010371715822e+01  8.4172847155089094e+00  -5.2437458160134076e+00  -1.5562812643356038e+01  -2.5152293677587414e+00  -1.0260191927492844e+01  -9.8421280154226736e+00  -1.2931449819564241e+01  -1.6327727389567833e+01  -2.2686078138541646e+01  -5.4247683372803868e-01  -1.0809911107589603e+01  -4.4227328869449289e+00  -6.7593534801798425e+00  -4.8717639996629778e+00  -2.8865069982463312e+00  1.0223843659646565e+01  -5.1744108933926958e+00  -2.2403633246150938e+00  6.6256910896102337e+00  9.2026456720401466e+00  -1.8645784304712873e+01  -1.6757619664263952e+01  -3.6091984685285969e+00  -1.3553998683579129e+01  -1.3185641734551762e+01  -4.8208086222364113e+00  -4.8542337031269893e+00  3.0736851951620775e-01  -1.6768795161544212e+01  -1.1730774713841427e+01  -1.8693248080701974e+01  -1.7564165884626807e+01  -1.1359054024013389e+01  -1.2987200747540546e+01  -3.9413067894863203e+00  7.0568150267725667e+00  -2.2226842929219600e+01  -8.9898400366191566e+00  9.6238620854355084e-01  -4.5515603430730520e+00  -5.3149516261637411e+00  -1.1039896372781461e+01  -6.2199687396752423e-01  9.5798668782309326e-01  9.6033552121987604e+00  1.0062267828875914e+01  -1.5987372747996799e+01  1.2063503754208922e+01  -1.8499793506430606e+01  -1.5352265335469982e+01  -7.6021420918104052e+00  8.7682770713063007e+00  -5.6923740726735899e+00  -3.3094552355603040e+00  -1.8094129826584272e+01  -9.1062056115044143e-01  1.1069169864206514e+00  -2.1888530505299442e+00  -1.6509167982763271e+00  -9.3854427089623673e+00  -7.2126404013783150e+00  -1.8681671151388120e+01  -1.7328623946376587e+00  1.0295825711122601e+01  1.3529428344227805e+00  -1.9145351397265888e+01  -4.1088533390056279e+00  -1.8289126815386236e+01  -2.2208966958143908e+00  8.2918376552110225e+00  6.4940244100469089e+00  -1.8014005828803597e+01  -2.0962846734583941e+01  -1.9450562456340537e+00  1.9491513223799548e+00  -1.1704695567776136e+01  4.2710067593803505e+00  5.6550574668396774e+00  1.2221740801106550e+01  -7.6118892694578583e-02  -8.6102848180425120e+00  -6.7426594968570317e+00  -7.8065876910680290e+00  -1.4770653956651548e+01  -2.1406990247926110e+01  -2.3960206699494094e+01  -9.5120955127960869e+00  -1.5816743399016628e+01  1.4461584642794600e+00  -2.7266936190385156e+00  -4.5809685293803621e+00  -4.7814308323578567e+00  -1.0279726768063775e+00  -2.5570614768839013e+00  -3.2581813437122437e-01  4.2873369943822029e-02  -1.2125150183983548e+01  -2.2513945777527599e+01  1.1401779281369363e+01  -1.2198602095296351e+01  8.3726035117018895e+00  -2.4724028068280418e+01  -2.4083542358019699e+01  -5.5022569325094368e+00  6.7138907276390380e+00  -1.4186817387544787e+01  7.4576870047547823e+00  -6.7062144289014398e+00  -3.9385057802226213e+00  -3.6152635330561806e+00  4.7436573183129260e+00  6.7086023773221912e+00  6.6471214344217300e+00  -5.8172915295792356e+00  1.4868460947579565e+00  5.0504631616912397e+00  -8.1682687277778907e+00  -8.2941677152669624e-01  -8.7957103565377395e+00  -6.1340535351525514e+00  1.2062796778510466e+01  1.1761870952133425e+01  8.9257321897521997e+00  -2.3422754636388646e+01  -3.6684905806085961e+00  -2.4014787854790875e+01  2.0563981694751061e+00  3.0354554666483331e+00  -2.8532381735767245e+01  -2.6449261000588326e+01  -1.7741958898651745e+01  -1.5106442506336704e+01  -1.4741647273050772e+01  7.6284643324465877e+00  -1.7438887778399565e+01  6.2341526846212529e+00  -7.1309063355735747e+00  1.0689778991391920e+01  -1.6117307674606916e+01  -6.3374160489775599e+00  -6.4917976947667011e+00  2.8558260718925790e+00  -1.1117608090076603e+01  -2.4545925371361815e+01  4.9066985435707089e+00  -1.0456620209792666e+01  -9.3030067430564127e+00  4.7042424373548899e+00  -8.9655790394836021e+00  -8.7333546910411120e-01  -1.9592821886590642e+01  -2.1044527905233462e+01  1.2037730498758076e+01  -1.2501119371394522e+00  -1.4441481897093058e+00  -1.5762707235771554e+01  -1.7321278260007983e+01  -8.0284793505547078e+00  -3.6262235117018333e+00  2.3747441959827400e+00  2.9927589449018948e+00  -5.4052513999898510e-01  1.0884651788147574e+01  8.3935937049013312e+00  8.5052061561155217e+00  6.0923669684939554e+00  -1.0190836862994674e+01  5.0148364856146657e+00  -9.2688167757916651e-01  -1.2451671545633760e+00  -8.8768039844542457e-01  -1.3199457609396319e+01  -1.3532706444920583e+01  -1.2571020003649300e+01  -7.2225577918206465e+00  4.1393233000717276e+00  -2.5078686974662792e+00  -7.8839890472691385e+00  5.6468998432514619e+00  -3.5826901269592222e+00  -2.2931448821405227e+00  -1.5166363490750225e+01  1.2847787540301485e+00  4.8276150413418160e+00  3.3566712934385263e+00  -2.1598596508949814e+00  -1.3679979891042633e+01  -1.5240526127045420e+01  -1.4033711465063949e+01  -1.1617186183933534e+01  -1.5074304035983003e+01  1.3782126471174574e+00  1.0258530694716109e+01  -8.0525834289014355e+00  -1.2895842824361894e+00  4.7218670167023697e+00  -1.2964826257889664e+01  -1.4576228613231248e+01  -4.5827668692867967e+00  -7.1260136573366042e+00  -7.7305993663143573e+00  -9.6020922244531022e+00  2.2789323181311834e+00  -1.9140810502333920e+01  -1.7734021727462089e+01  -1.2255740939293071e+01  -1.0150863787614608e+01  1.0054488338950167e+01  9.2360034547233774e+00  -1.0082982523152353e+01  -1.1097882330587169e+01  8.5362134864050070e+00  8.4703601246329825e+00  1.0646322208057795e+01  -1.2258321618719826e+01  -1.5282572698178983e+01  -9.7499886486144973e+00  -1.1092701981504783e+01  -7.9929710670350111e+00  -1.5346582325519284e+01  -1.9527901191925029e+01  -1.2790282378768406e+01  -7.2223949498801936e+00  -1.6040279242807049e+01  9.9823942048010430e+00  -2.6127298710344724e+00  5.6563713576104577e+00  -3.5064618610805933e+00  -2.0702112935121509e+01  5.3658351291062871e+00  -2.3972610595926433e+01  3.3412215246820205e+00  -2.4988085403347164e+01  5.0063368752004047e+00  -1.3123134681027434e+01  -2.0979863671440445e+01  -8.6034432786908486e+00  -2.5611362598774431e+01  -1.0510373378492135e+01  -6.4987376206064145e+00  -7.3158167755692913e+00  9.7055686553399791e+00  4.6315134799496196e+00  -3.1365088443324947e+00  2.3878128371329987e+00  9.7720002465807299e-01  3.0660064974993602e+00  1.5702694364160763e+00  9.2507191098765933e+00  7.0906216846308441e+00  -1.6967522769251516e+01  -3.3263455360670185e-01  -2.8708790637782609e+01  3.3790617870387969e+00  -1.7249239453760307e+01  5.3776138141712275e+00  -2.4434613769761928e+01  -1.1233109696746146e+00  -8.6295129735307405e+00  -7.3090906324638827e-01  -6.6154942803095595e+00  -6.1213524645644783e+00  -4.9977049958120441e+00  5.8527800595564976e+00  8.7349726914396015e+00  1.0071179753628471e+01  1.3250067668570070e+01  9.8849523177832168e+00  2.7581636080016398e+00  -5.6869056060159844e+00  -8.0553136063267026e+00  -5.2917377453488950e+00  -9.3855157894569192e+00  -2.1368531289836191e+01  -2.9677758233769564e+00  1.8656146624341927e+00  -1.1704191684353813e+01  -1.1960571261461249e+01  1.6945778490569858e+00  4.0908463698759627e+00  2.5739232275076178e+00  -1.7351039893900868e+01  -2.1488798527241684e+01  3.8121935075161273e-01  1.1996959169903638e+01  -1.5052367408514378e+01  -3.8057701340965719e+00  -2.3133128877735064e+01  1.1422234421335865e+01  3.4931805421513076e+00  2.0835581464800410e+00  -4.5721602550213909e+00  -6.471496769654