<?xml version="1.0"?>
<VTKFile type="UnstructuredGrid"  version="0.1"  >
<UnstructuredGrid>
<Piece  NumberOfPoints="5185" NumberOfCells="10070">
<Points>
<DataArray  type="Float64"  NumberOfComponents="3"  format="ascii">0 1.5 0  0 0 0  0.1232405621108402 0 0  0.1232405621108402 0.02253860454731437 0  0.1476111412843772 0.06045996594834066 0  0.1886148129381372 0.07918571535047463 0  0.2332332010401509 0.07277055962836147 0  0.2673002826264945 0.0432512653964478 0  0.28 0 0  0.5342215165449864 0 0  0.5342215165449864 0.02394141003279682 0  0.5649999999999999 0.06062177826491071 0  0.6121553724366851 0.06893654271085457 0  0.6536231110183285 0.04499513267805775 0  0.6699999999999999 0 0  0.91 0 0  0.9220577136594005 0.04499999999999999 0  0.9550000000000001 0.07794228634059948 0  1 0.09 0  1.045 0.07794228634059946 0  1.077942286340599 0.04499999999999999 0  1.09 0 0  1.52324056211084 0 0  1.52324056211084 0.02253860454731437 0  1.547611141284377 0.06045996594834066 0  1.588614812938137 0.07918571535047463 0  1.633233201040151 0.07277055962836147 0  1.667300282626495 0.0432512653964478 0  1.68 0 0  1.84 0 0  1.857573593128807 0.04242640687119285 0  1.9 0.06 0  1.942426406871193 0.04242640687119285 0  1.96 0 0  2.22324056211084 0 0  2.22324056211084 0.02253860454731437 0  2.247611141284377 0.06045996594834066 0  2.288614812938137 0.07918571535047463 0  2.333233201040151 0.07277055962836147 0  2.367300282626494 0.0432512653964478 0  2.38 0 0  2.534221516544986 0 0  2.534221516544986 0.02394141003279682 0  2.565 0.06062177826491071 0  2.612155372436685 0.06893654271085457 0  2.653623111018328 0.04499513267805775 0  2.67 0 0  3 0 0  3 1.5 0  0 0.75 0  1.5 1.5 0  0 0.375 0  0.75 1.5 0  2.25 1.5 0  3 0.75 0  1.216228490499689 0.8069757125887627 0  1.965682393638027 0.8065702515463131 0  0.6025408912810675 0.8974591087189325 0  2.494676348647751 0.9946763486477508 0  2.356709259621435 0.5447946099875809 0  0.8599642199210003 0.5226206461323684 0  0.4216394361293908 0.4974105777134379 0  0.375 1.5 0  0 1.125 0  1.875 1.5 0  1.591091407334617 1.058091082812092 0  1.125 1.5 0  1.590810830624645 0.5394732912049653 0  0.9375 1.13479915923725 0  3 0.375 0  3 1.125 0  2.625 1.5 0  1.995245765771775 0.4277948434396763 0  2.145880954246818 1.137688199332401 0  1.227783477957362 0.427141979786574 0  2.705436295205127 0.5625 0  1.268702849688826 1.133996222613609 0  0.3526676910824388 1.147332308917561 0  0.3097907151415997 0.7889144057821572 0  0.903221947180751 0.828141240074398 0  0.6461527570085278 1.190944174645022 0  2.258488242757536 0.8210127920483788 0  2.400058919161888 1.260760484185309 0  2.778889354513028 0.9375 0  2.725079155390203 1.225079155390203 0  1.853608154101008 1.201589046866999 0  2.540576981905353 0.3370046821869876 0  0.7811555507088518 0.2732832036972447 0  1.493222576519009 0.798835058995101 0  1.747409300790817 0.3184283662481822 0  1.459899526511598 0.3067772450698331 0  0.1875 1.5 0  0 0.5625 0  2.521594883841638 0.7403247928378012 0  0.2438476629309629 0.32244155773108 0  3 0.1875 0  2.776470677837637 0.28125 0  2.121241022911138 0.6281701698960991 0  1.728545483402697 0.8581016441191361 0  1.012422318322288 0.3271268474523591 0  2.305755967143385 0.3144626442661202 0  1.30662028105542 0 0  1.6875 1.5 0  1.8265892939935 0.6051726401583923 0  0.5458598773451642 0.2962606377138959 0  0 0.9375 0  1.349377516922966 0.6209336375388498 0  1.079656249611334 0.612728400373996 0  0.7151087041654347 0.6989529576230681 0  2.0625 1.5 0  1.59375 1.288981971791887 0  2.085107439753329 0.2191742438537923 0  0.6402689932842839 0.4934943541428904 0  1.228474271256239 0.2064231070567615 0  1.3125 1.5 0  1.06968030723948 0.9647793670181679 0  0.2113350105157037 0.5332932754427466 0  0 1.3125 0  0.5051540211699285 0.7110632261327643 0  0.4775171365050886 1.316467280173536 0  1.967112413780365 1.020384154410382 0  0.8191736043349165 1.304781661824189 0  1.103455205015878 1.280328263155604 0  0.7649318329201844 1.023310716596371 0  0.2120544860962804 0.9823800432730223 0  1.359100570345391 0.9517705003379791 0  0.1711043107784345 1.21875 0  3 1.3125 0  2.8125 1.5 0  2.714178691455841 0.7554813872281284 0  2.217815962767571 1.313132398873298 0  2.020480176543968 1.307095379623413 0  2.29875620117699 1.013690599387144 0  0.3848285295772316 0.1937040883803935 0  0.9375 1.5 0  3 0.9375 0  2.4375 1.5 0  3 0.5625 0  0 0.1875 0  0.5625 1.5 0  2.835 0 0  1.386383673099448 1.305536509588035 0  1.773513842966063 1.0362399691084 0  2.179843036592861 0.4515211056338026 0  0.4134910794700652 0.9582824971065591 0  2.107214813096467 0.9125353945687058 0  1.916698009609654 0.2702971158297667 0  2.533006985360663 0.5155509623987015 0  2.838574938309606 0.4465309273225452 0  0.3016597101560133 1.338635596991575 0  1.641573393474498 0.7066136805426366 0  2.855238878880983 0.65625 0  1.398074618385877 0.1459865472102536 0  1.756539173374812 1.342993235461221 0  2.434593137832078 0.2067018044975929 0  1.434366740555482 0.4743139981449843 0  1.440742946818836 1.142108619191562 0  0.549043549720087 1.055391704395 0  2.571565919072277 1.32487216700893 0  2.535776521770127 1.159155922815097 0  2.652193336606067 1.04269083214613 0  0.660031172970541 1.35825582857438 0  2.607645482283307 0.8780318994093907 0  1.09590027081365 1.121554905778777 0  0.1474979543625655 0.8283466240195498 0  1.056776372361757 0.7739494406659941 0  0.3647560414155882 0.6427945145874604 0  1.699724067482516 1.17405657891935 0  0.913786173488833 0.9822051271795349 0  0.9283491691592597 0.66876089182342 0  0.7498959802087029 0.8498501951910959 0  0.3951228082283652 0.3465404522808934 0  1.23887612906836 1.360760366473919 0  0.1206420558503055 0.65625 0  1.735537276557186 0.4760109437618505 0  1.799297742536812 0.1791526413061006 0  1.970987958006469 0.6541756362249113 0  1.080810552147559 0.461742062484039 0  2.268149337929528 0.6688757993926466 0  2.413602460817152 0.8574959373397593 0  2.833998248858927 1.096635576389 0  2.71875 1.378451438260757 0  2.001906612723158 1.162230131308666 0  2.859452984352005 0.8083820929207302 0  2.688478120768856 0.4086214703657035 0  1.214106348747711 0.9519545202622776 0  2.850368184690094 1.307066142740315 0  1.864893983840636 0.9141560734025058 0  1.60661446108863 0.2395589708587393 0  1.61163060570479 0.3901968276506504 0  2.771867619212225 0.1335769833684914 0  0.7969119039620236 1.163109784140262 0  0.9599416701963486 1.276596315583475 0  2.103624150445193 0.7698297553089299 0  2.279721363034605 1.185280797873663 0  2.34375 1.392122382816539 0  0.1382307077648764 1.361769292235123 0  0.1426478344893104 0.2175212356047023 0  2.406413880432258 1.104106228251116 0  2.414971181397263 0.4111042519521358 0  2.637277274673136 0.2192348292007474 0  1.353600469573883 0.7646239317376279 0  1.494012125944227 0.651091825511382 0  1.590274899157226 0.9102986199774393 0  1.028633500752755 1.396325660524358 0  1.829615743479497 0.7518128394998403 0  1.861059000344659 0.3963812297683985 0  0.510900777690535 1.185277566959035 0  1.213080286311768 0.6640546084318578 0  0.79 0 0  0.8167897395818556 0.1376517357725223 0  0.9319739747594649 0.2144569310211157 0  1.889188139713804 1.330032757791382 0  0.655714683266079 0.2049689967103183 0  2.09162028105542 0 0  0.1359367774292784 0.4137345801986589 0  0.4380798275211911 0.8267965724704243 0  2.40400705830434 0.6721965963037969 0  0.3027633520173528 0.4394586980387968 0  0.8782788855287165 0.379708545377904 0  0.7595213470930909 0.4371189613680841 0  1.317967779309324 0.3170637160852436 0  0.6053759621699666 0.6225641226781395 0  0.6530309552265516 0.3661735489900947 0  2.594089294631991 0.631328821944253 0  0 1.03125 0  0.1304283746114646 1.089970844689444 0  0.4071107582724932 0 0  1.469526282978338 1.017083854458662 0  1.088959023533499 0.2104112015424126 0  1.161808378403757 0.3165749773273478 0  2.172966779463329 0.3188379172988492 0  2.216343768168092 0.1920401700474863 0  3 0.09375 0  1.905024675365066 0.5108806275986008 0  1.702014103004408 0.5963171944847371 0  0.2428042557945101 0.6514309613450368 0  3 1.40625 0  0.262372466757009 0.191725613649506 0  2.116791485436391 1.387145016777417 0  1.96875 1.5 0  2.885528053432104 0.3345800153572822 0  2.875601419873791 0.2042517854891826 0  2.298911783255236 0.4400662366556407 0  2.459247322083259 1.363881377923602 0  0.9735587139454543 0.5585353431007029 0  1.176315140569268 0.5379697839544898 0  2.0296370010214 0.5459700999805513 0  0.4987416453488727 0.4060939323248423 0  0.5397511702990104 0.1771676763212877 0  3 1.21875 0  2.238710633113112 0.5542203056099733 0  1.19831014052771 0 0  1.583962270593198 1.173633921912192 0  1.650563144166832 1.390075718520202 0  1.496025571730155 1.371899864460592 0  3 1.03125 0  2.887481932992674 0.9890041589451042 0  0.247836885460272 1.094286258989912 0  0.4719220056590702 0.6009044603312741 0  1.97565550452845 0.1615660574331665 0  2.131135530378305 0.1108580974478677 0  1.318642333542132 0.5051755928544708 0  1.217460132329928 1.242599824876711 0  1.511891312109549 0.1714963794002952 0  2.174601400318987 1.01685942781215 0  0.9082882406313817 1.384236564302014 0  0.6140422604397168 0.7728109899968187 0  0.8289359680247524 0.7347587321432018 0  0.741509926624258 0.5729763888559004 0  2.058356323822746 0.3313153147701495 0  0.4534336320756143 0.1034622594748756 0  1.40625 1.5 0  1.689084537897351 0.9628079283127213 0  1.156270839633873 0.1228556218721798 0  1.29033806179015 0.1118395069726669 0  1.460859151915469 0.9057320169622244 0  2.326558662668462 0.1831424028173474 0  0.9693052477371982 0.4460054238200853 0  0.6625304018229865 1.076650755704414 0  1.41493042158313 0 0  0.4485426513928407 1.096421738127594 0  0.2454589766548061 0.8778352103982039 0  0.1115239912906509 0.9339683416032414 0  1.134782462834443 0.8782884736059876 0  0.9999448991609674 1.04695529392896 0  0.9835215815673453 0.9000292002687431 0  2.53125 1.5 0  0.3175564878698739 1.010319294269645 0  1.971944763694389 0.9134401013848152 0  2.06
[...]
<PointData  Scalars="f_66"> 
<DataArray  type="Float64"  Name="f_66"  format="ascii">1.4532298948317530e+01  -2.5521739276128702e+01  -2.3325574904510702e+01  -2.3359512385238222e+01  -2.1608423299347248e+01  -2.0759462873099721e+01  -2.2978106539462409e+01  -2.3768668681378955e+01  -2.5368742287425807e+01  -2.1460487755561491e+01  -2.1065421715318898e+01  -2.2823821864923911e+01  -2.2218439313992100e+01  -2.2317498172506109e+01  -2.1770943816280120e+01  -2.2291343892106234e+01  -2.1386307328660664e+01  -2.0553176099501393e+01  -1.8805285784093147e+01  -1.7803011917050277e+01  -1.9978198239223897e+01  -2.0247736643771880e+01  -2.0686716576602553e+01  -1.9503451975655381e+01  -1.8481113608095640e+01  -1.6856729372719112e+01  -1.5453393424777396e+01  -1.7373194573786435e+01  -1.7356798584067512e+01  -1.8726258250278114e+01  -1.6840147100233803e+01  -1.4769701418848928e+01  -1.4291607687168915e+01  -1.5270600044849944e+01  -1.4080356927960569e+01  -1.3667875973369560e+01  -1.2535979272078704e+01  -1.2123816937830320e+01  -1.2898776616436916e+01  -1.3393415345030665e+01  -1.4353787358916733e+01  -1.1214511246050840e+01  -1.1016155657377821e+01  -1.0688396731323861e+01  -1.0760921454186377e+01  -1.0336555050575797e+01  -1.0183379570726521e+01  0.0000000000000000e+00  0.0000000000000000e+00  -8.1794133373075990e+00  1.9563018233593077e+01  -1.7928940403626964e+01  1.4348870782083413e+01  1.6268706478049982e+01  0.0000000000000000e+00  -2.8750011105435873e+00  -5.2332748815848706e-01  -2.5628343061569185e+00  3.3121360011960972e+00  -4.2058520762511735e+00  -1.1151515782781635e+01  -1.3248210003569870e+01  1.3955325789734356e+01  1.7311812367694719e+00  1.7575973232488714e+01  4.2760944697577168e+00  1.6248366368059628e+01  -8.0086187103117705e+00  4.4264655215588444e+00  0.0000000000000000e+00  0.0000000000000000e+00  1.4279218679674539e+01  -8.5960951555120584e+00  6.7543863540916806e+00  -1.2095183562969424e+01  -2.4792617128357155e+00  5.3343846432436122e+00  3.1389492539399058e+00  -6.2137477097433873e+00  -3.3651438185168314e+00  5.0316828799831859e+00  5.2595396369444691e-01  8.9535068865948784e+00  1.1451152459145242e+00  5.4210093443250171e+00  8.1471221898130697e+00  -6.5945009390646154e+00  -1.7591803351092715e+01  -2.2176506798811815e+00  -1.2502925891770968e+01  -1.4114206806040960e+01  1.2810430321656126e+01  -1.3117150996969302e+01  -5.5174703066569630e-01  -1.8431455554296186e+01  0.0000000000000000e+00  -5.6192801671135335e+00  -3.8744360467088836e+00  -9.2585823940994030e-02  -1.5490511233193468e+01  -9.0286653096377467e+00  -1.8877128490206353e+01  1.6571038627036913e+01  -5.5579957102176181e+00  -1.7967005502504399e+01  -3.2505707498311933e+00  -6.9488610058056262e+00  -8.1251086128800836e+00  -7.1770446706227888e+00  1.9249294588041241e+01  9.9132126041023536e+00  -1.2681017038608143e+01  -1.2608140899348294e+01  -1.7347235426454791e+01  1.5906822006300819e+01  5.0935087383718314e-01  -1.3158416470759430e+01  6.8623256458822768e+00  -7.6373148676536076e+00  7.6904801706631742e+00  4.1495151580278193e+00  8.2297497432260460e+00  8.3769118605091446e+00  1.0575527883990796e+00  -1.5767651089477248e+00  1.0618879459688073e+00  4.4368375100344286e+00  0.0000000000000000e+00  1.0082140746450310e+01  -1.9784372730442662e-01  1.0714999456674372e+01  1.0705275099745263e+01  4.3572889945635902e+00  -2.0888951104257071e+01  1.7145298559647465e+01  0.0000000000000000e+00  1.8846600401224912e+01  0.0000000000000000e+00  -2.2144440434493387e+01  1.6408772920721926e+01  -8.0980006522588592e+00  9.7681224141139591e+00  4.1039589129515397e+00  -7.2362538899188786e+00  -1.5469501515608015e+00  1.9702248123130766e+00  -1.2706868234348354e+01  -3.8156144494368078e+00  -2.5640612692183873e+00  8.0962724173356815e+00  -3.8704795798762310e+00  -5.4533150955317766e-01  -1.8061968232511518e+01  1.1588680967042041e+01  -1.0248492875046281e+01  -1.0194167478567392e+01  5.8293783385035765e+00  1.2023061564482875e+00  9.2260010562907215e+00  6.1214549406273964e+00  4.1469428836355080e+00  9.4826357222313558e+00  2.0016377826245049e+00  4.4205626279099306e+00  -5.7336141715276776e+00  -4.2166185218928138e+00  -9.7401477513613290e+00  7.1903596427775129e+00  5.1931268221567595e-01  -7.2263380717043049e+00  -3.3098087831345526e+00  -1.7104749409048861e+01  1.1205209178300045e+01  -1.0266158157446284e+01  -8.8480180397331711e+00  -1.5331155218925133e+01  -3.7900710793282704e+00  -1.1854316020398622e+01  -2.2966240101104964e+00  1.2320058907136209e+00  2.1135349824315490e+00  9.3692250744750591e+00  7.3493823265556166e+00  4.9578411154771468e-01  -4.5362715403170100e+00  6.6137822001499469e-01  3.6314167831512787e+00  1.5152606319321129e+00  -1.5119461843770200e+01  -1.1489787732319195e+01  -7.7510959817462712e+00  4.6027208473712777e+00  8.0803417475471875e+00  -9.8811995549331066e-01  7.7734296325003642e+00  1.2575178525670632e+01  8.3099404544277764e+00  -2.0933016965040622e+01  5.7144163536467323e+00  -6.5601329308359224e+00  -7.6633970191566227e+00  -3.4678470339633867e+00  -5.7321468516088325e+00  7.5350895420408714e-01  1.1834255424249248e+01  -2.2403053897202971e+00  -1.0175042256791901e+01  4.3584502644016325e+00  -6.3771767651311553e+00  -2.0677973439773655e+01  -2.0689041325815428e+01  -1.8574839988781751e+01  1.1348933529442313e+01  -1.9770007916313613e+01  -1.6400066822587323e+01  -1.6394541617679238e+01  -4.8525705140743307e+00  -1.9474678103562595e+00  -1.5169182420272248e+01  -1.4636770894640996e+01  -1.3615040609985313e+01  -1.4369328099714718e+01  -9.4975816920166736e+00  -1.5764787780025232e+01  -1.4562984308467490e+00  -7.4943083411811318e-01  1.0531729612414134e+00  -2.2209539601139888e+01  2.9099707340233825e+00  -1.7877530795138291e+01  -1.5122447774603065e+01  -1.0050519149523261e+01  -1.2249762646125008e+01  0.0000000000000000e+00  -7.3343749433610403e+00  -6.1927470893039906e+00  -1.0014497360914893e+01  0.0000000000000000e+00  -2.1491449375771861e+01  1.3611086268355967e+01  1.6784063412213335e+01  -2.4823798361567975e+00  -5.1856018173207721e+00  -6.4875410261546689e+00  1.1281854610934063e+01  -9.8014067302398864e+00  -9.6092266384659482e+00  -5.8331035423309485e+00  -1.5351198228341715e+01  -2.0906021332217794e+01  0.0000000000000000e+00  -4.7325533127618611e+00  -2.1106714405182803e+01  7.0489045074385048e+00  1.2985639954861957e+01  1.2367654015174280e+01  0.0000000000000000e+00  1.6543510111157413e+00  1.4031335041552333e+00  -1.0510791461852879e+01  -1.4440513008961084e+01  -1.4278800535389450e+01  -9.8454789194743189e+00  7.8694946972898441e+00  -1.7010768312342051e+01  4.1484828609740543e+00  1.1389885851358644e+01  -5.6631376892546239e+00  -5.9835115845390590e+00  -1.0270184637514115e+01  -1.0383898037658740e+01  -2.1530682127755874e+01  1.6376929271816127e+01  2.2251672225135852e+00  -1.9400172585408470e+01  -1.9087190912795727e+01  2.1603718478972211e-01  -1.1646829022540274e+01  -1.2642313662078392e+01  2.2001549203319346e+00  -1.9457536962492210e+01  2.0248102996350088e+00  -4.1740946696415770e+00  -3.0702842160069586e+00  -1.4508261369347881e+00  2.4239349130778423e+00  -1.2690584643985143e+00  1.4554671446241016e+01  -4.9279059504865541e-01  1.8179281982688338e+00  5.3845033069522499e+00  6.0678657533951679e+00  -1.3840922913087708e+01  1.1390794633813652e+01  2.1963784937445370e+00  -1.2395516136045405e+01  -2.0182247965450507e+01  8.4099926712502313e+00  2.9298463507195773e+00  8.7724398689168215e+00  -1.1253524915262487e+00  -8.7211823740817973e-01  9.8069273310779277e+00  5.4146185928748194e+00  7.0808740169191724e+00  -1.7235101599425224e+00  -8.7212251322957730e+00  5.1486953827883148e+00  2.3926897019237434e+00  -6.2043270656227545e+00  -1.1716718340559639e+01  -4.9895935037965516e-01  7.6830380330868211e+00  1.2654480552038411e+01  1.0876853483086846e+01  6.6145417996616072e+00  3.6979454805941696e+00  2.3620899380765898e+00  0.0000000000000000e+00  6.3941257208556008e+00  -2.3478687726154014e+01  2.6118311884734049e+00  -1.1058825539910082e+00  -8.5273993060253517e+00  -8.3126935850783346e-01  -8.5486103298818534e+00  -2.7735461531774814e+00  1.3316053898811401e+01  1.0442532651139594e+01  -1.4923925243476214e+01  -4.0704539649719882e+00  -7.5684603475692551e+00  5.0616288184517408e+00  5.7719283894892088e+00  1.3425991650007317e+01  -1.1847693468468794e+01  -1.5454259551457531e+01  6.2294134219959254e+00  -3.7400150775736916e+00  -2.6972198608704883e+00  5.8372574301986022e+00  -7.2317677638137141e+00  4.9975987488566664e+00  9.8191388805382189e+00  9.2193517619651342e+00  3.5636960336351144e+00  3.9587855279867812e+00  1.4487207643293541e+01  -1.8782772236308425e+01  -1.1701123964366532e+01  -5.9092086078470265e+00  1.6307272255514746e+01  -1.2545417060517995e+01  -2.3344413251808618e+01  1.2931591879564497e+01  1.0045782683326699e+01  1.7149676191220860e+00  4.2449722556542229e+00  5.8774969634070668e+00  3.9464371809409635e+00  3.1601955067778237e-01  -1.1493213608530635e+00  6.5463574837380722e-01  -1.3617263346694197e+00  -5.8273543066710776e+00  -1.8940442099029159e+01  -1.9363766827284405e+01  0.0000000000000000e+00  1.2180029237667511e+00  -8.1944010371549023e+00  -1.7262165640105607e+01  2.8756747750704181e+00  1.0204311613631084e+01  8.5898433664028495e+00  1.3523038708034901e+01  -1.5890497357833121e+01  -2.2704580680005979e+01  -3.2698008779497219e+00  7.4188952292230841e+00  2.3297869774553392e+00  -2.0767908899451783e+01  -7.2590599204445896e-02  1.5156838631573162e+01  1.7590084457576683e+01  1.6583234715421863e+01  1.8628304990184237e+01  -1.5549643935746399e+01  -1.0685859719145540e+01  -5.7711288821966509e+00  1.5486157527863000e+01  0.0000000000000000e+00  0.0000000000000000e+00  1.6811596509103431e+01  1.6229044888807593e+01  1.9952013569613975e+01  1.8763962442285827e+01  -8.0800092928149727e+00  -7.3497711849600869e+00  -5.6277211040863611e+00  -3.7589051625277783e+00  -4.3224030689996790e-01  4.9607506932105705e-01  -5.3090844728587454e+00  4.9080542279083668e+00  6.0837183208912418e+00  3.1302816611423157e+00  8.5756172485184194e+00  1.1919603121974589e+01  -2.4756125895527745e+00  2.0179721457361888e+00  -9.6993757201474438e+00  1.7207525829630264e+00  -2.2737958767211888e+00  -5.0747020445335371e+00  -4.7244785753479697e+00  -5.5693057043426180e+00  -4.8738995609834452e+00  9.5278083335596868e+00  8.6562116629518435e+00  6.5236281804315297e+00  -1.1881012598473917e+00  -1.4748895562765018e+01  3.1756903209758320e+00  7.5273524321848373e-01  -1.7935529619902555e+00  -4.1271211334859279e+00  -2.3397473069282535e+00  -1.2653458283867620e+01  -1.0691365083582992e+01  -1.2287740337951748e+01  -2.6596952939476131e+00  -1.9315349949378966e+01  -8.9493406943130651e+00  -7.3953620761013683e+00  -8.3345617079824610e+00  -5.9350157749862937e+00  -7.9640053909318187e+00  -1.6378778069178413e+01  2.7498599333685725e+00  4.4857871534045444e+00  -1.3520790934688620e+01  -7.6177237413899821e+00  -4.4480547597139726e+00  -5.7283047735788661e-01  3.8022203458396681e-01  5.3819296989380838e+00  5.7580719962178977e+00  7.7148605720364474e+00  -1.1962892047861441e+01  -2.4411560964784833e+00  1.9651037496482664e+00  6.4408823230513406e+00  1.4229146998518681e+01  -8.8716350003549351e+00  3.0907514970477390e+00  3.1744265972579431e+00  6.9694287391894418e+00  4.8307531942162338e+00  -8.3170937701161893e+00  7.5346060913202679e+00  -1.6255305993552856e+01  -1.6363618858686291e+01  5.9075722862655882e+00  -9.6643721641389533e+00  -1.8256380733101466e+01  3.1542118971802977e+00  2.7188345980892918e-02  -1.4597219998741281e+01  -1.4052594255405959e+01  -2.8834445603311915e-01  -4.9121938614109535e+00  -6.5723154890333504e+00  1.9525761689518302e+00  -1.5450073207841921e+01  4.9376050360020987e+00  -9.7974271917993381e+00  1.0626269026543605e+01  -1.1711631750377729e+01  -3.4466234828477909e+00  1.1558589490441657e+01  -1.0017041011784583e+01  -9.4780482059031854e+00  -1.0972158429253852e+01  -1.9384517728216551e+01  7.4446337630640551e+00  -1.8680389182813155e+01  -3.5380354810936372e+00  -1.7397064922884667e+01  -1.3091332019073134e+01  -1.0624603541317098e+01  1.1893764499456807e+01  -1.7623686331279682e+01  1.6587169683076217e+00  1.3733973207891589e+01  -1.9063409588951199e+01  3.9814485028517366e+00  9.6372347887655341e-01  8.7308478412559221e-01  4.4308762692060988e+00  1.0912347016862025e+01  2.5033954392993993e+00  9.3155178496670281e+00  -1.6708592581635482e+01  7.5024909636273396e+00  -5.6127234174566283e+00  9.6077054085530857e+00  1.3873327026010285e+01  2.4732497430056704e+00  5.2826585230140557e+00  -1.8702636045066459e+01  -1.0217345349198661e+00  -1.8687574406461678e+01  1.2000334204568042e+00  9.5783998924539429e+00  7.0385791202783246e+00  -2.0918526072179979e+01  9.9724563475394579e+00  -3.7550866843158168e+00  -1.4030138687913155e+01  -4.7686332268332388e+00  -8.7921883975115644e+00  -8.3805496498135383e+00  -1.1418216719577128e+01  -1.3267162782035287e+01  -2.0761478762601460e+01  -2.0155699494250257e-01  -9.3513546327000086e+00  -3.0442378130952439e+00  -5.3207961784230271e+00  -5.3818503374070579e+00  -1.4623340262141533e+00  1.2816215282819922e+01  -3.8147033784650426e+00  -8.5318266242393526e-01  9.7241370090719794e+00  1.2120239936601347e+01  -1.7117498629451003e+01  -1.5201723382285573e+01  -2.1746921100075300e+00  -1.2084326755813469e+01  -1.1674882009531197e+01  -3.3897009220390646e+00  -3.6253993465697611e+00  7.4212516899512548e-01  -1.5303086193207108e+01  -1.0537678075973792e+01  -1.7253036224415418e+01  -1.6167834372046887e+01  -9.9190462144829858e+00  -1.1538796921896925e+01  -2.5076106973339574e+00  8.6444172306188563e+00  -2.0055498049142589e+01  -7.5101165515984505e+00  2.4248814023650800e+00  -3.6414702666548417e+00  -6.2269494583491207e+00  -9.9328295853166946e+00  7.3608275605988338e-01  2.3521841254491167e+00  1.1903786030489394e+01  1.2019129030700244e+01  -1.4541212352722857e+01  1.4516516723205285e+01  -1.6159951941377244e+01  -1.3938666122867591e+01  -6.1454613293442000e+00  1.0433523589702705e+01  -4.2298644698524281e+00  -1.8749774928970022e+00  -1.6542735516478846e+01  5.7883090662063408e-01  2.5626841268790939e+00  -7.5219725203045473e-01  -2.0991062757328591e-01  -9.0688233315716680e+00  -7.4129649979445045e+00  -1.7128777705340365e+01  -4.3786942225810760e-01  1.3631969418084788e+01  2.7978030304712389e+00  -1.7563999243452660e+01  -2.6335119911360789e+00  -1.6622977696245176e+01  -8.5790612409067979e-01  1.1423427589205119e+01  8.1732211414420526e+00  -1.6432700975721168e+01  -1.9322573376669290e+01  -2.6533627264966362e+00  3.2914907875973798e+00  -1.0220948338848777e+01  5.7728095383333944e+00  7.1419037314801752e+00  1.5285878696011084e+01  1.2254450554176313e+00  -7.4114660333311333e+00  -5.5760096231117124e+00  -7.0762293411002597e+00  -1.3321098286596525e+01  -1.9956246360468196e+01  -2.1705227383020727e+01  -8.7163803547565539e+00  -1.4171815031977113e+01  2.8505514365150284e+00  -1.2321738757842775e+00  -3.0904275358778062e+00  -3.3881495497040035e+00  3.4634405274136049e-01  -1.1128446038769990e+00  1.1548295350512212e+00  9.1303620432077026e-01  -1.0620271411825490e+01  -1.9544211272130294e+01  1.4591391895542138e+01  -1.0736071089137766e+01  1.0534381915417477e+01  -2.0175506775957491e+01  -2.0480286041215201e+01  -4.0920882481404455e+00  8.1879656353342121e+00  -1.2722275700085616e+01  8.9527294047363988e+00  -5.2508488320061470e+00  -2.5367136736672049e+00  -2.5150788468778944e+00  6.2447383997868435e+00  8.2214048081882094e+00  8.1401297587541723e+00  -4.3860570495766682e+00  2.8740172901165781e+00  6.3898696763139915e+00  -6.7472209634766793e+00  6.1429659686585580e-01  -7.3704369211348872e+00  -4.6978966586931001e+00  1.6000075171138771e+01  1.4792576583698937e+01  1.0750061140088873e+01  -2.1358706801624084e+01  -2.3767094391823576e+00  -2.1858294591128686e+01  3.4767854943508603e+00  4.4102122164837265e+00  -2.4516560482157917e+01  -2.3587693714914685e+01  -1.6093670319417459e+01  -1.3649023959811853e+01  -1.3304889500955168e+01  9.2509541691378789e+00  -1.5881521791825758e+01  7.8407111796065916e+00  -5.6375143678358128e+00  1.3237603372096926e+01  -1.4645920257325875e+01  -4.9838479671779865e+00  -6.6633979741640355e+00  3.6749094859411717e+00  -1.0208128109152407e+01  -2.1938925455849301e+01  6.3958032284537474e+00  -8.9599595500573113e+00  -7.8690014240707393e+00  6.1592539041737604e+00  -7.5394838627703287e+00  6.1728854510523301e-01  -1.8090633877003871e+01  -1.8900493797512130e+01  1.4530951736428070e+01  1.2199583559740733e-01  -1.3781143270484035e+00  -1.4225798490958116e+01  -1.5761774048180634e+01  -6.6150752599201912e+00  -4.1520778270720733e+00  3.7912141297173068e+00  3.5739865549661967e+00  4.3468460868514874e-01  1.3540549662028702e+01  1.0023268433044814e+01  1.0079636999723707e+01  7.5953093867390367e+00  -8.8510921008041290e+00  6.0134723412904796e+00  -1.1187762942819215e+00  -1.1386914292195762e+00  5.4095731762208943e-01  -1.1733294704869962e+01  -1.2024741571463277e+01  -1.1269788105259313e+01  -5.7806619990408006e+00  5.5517273171024142e+00  -1.5252008019789343e+00  -7.0907914423001683e+00  7.1342742459339936e+00  -2.1466739767354981e+00  -1.4127302068019938e+00  -1.3836723865475093e+01  2.6238460470793155e+00  6.1544419057728836e+00  4.7421431085970021e+00  -7.1258772965112360e-01  -1.2222113418410851e+01  -1.3413673025318952e+01  -1.2358854061934462e+01  -1.0196471925645874e+01  -1.3595682758407211e+01  2.7764221555889979e+00  1.2921865690509183e+01  -6.6355327663365529e+00  -1.3114956470995168e-01  6.1587647143785222e+00  -1.1762220958748388e+01  -1.3196100379959606e+01  -3.1413565024703889e+00  -5.6354806516745262e+00  -6.3086462207291758e+00  -8.1815915093132894e+00  3.9115995710820441e+00  -1.5408868502416125e+01  -1.6231989505457872e+01  -1.0999569885598298e+01  -8.7728043562654641e+00  1.1864100613158303e+01  1.0875818602538974e+01  -8.6449658510573233e+00  -9.6222658801275944e+00  1.0010626648602763e+01  1.0032178388238227e+01  1.3675512273588064e+01  -1.0789955624900436e+01  -1.3752067381591047e+01  -8.2718760557405453e+00  -9.6727141973801949e+00  -6.5141174473428558e+00  -1.3814618155156349e+01  -1.6406218688813578e+01  -1.1314585970778692e+01  -5.8217877501195208e+00  -1.4609746888971538e+01  1.1670978971181150e+01  -1.7057187649188319e+00  7.0757596628822643e+00  -4.3615217493127441e+00  -1.8726852268672943e+01  6.7944331996975755e+00  -2.1368290996525218e+01  4.8219710739525921e+00  -2.0859882596402539e+01  6.7586130385057093e+00  -1.1685836961846549e+01  -1.9289119585513532e+01  -7.1805689310788292e+00  -2.0789682880010012e+01  -9.1638059452484004e+00  -5.1249298190366694e+00  -6.0626179694913107e+00  1.3459801461484208e+01  6.0696938169601955e+00  -2.7465422654059410e+00  3.8353610325260314e+00  2.3602837384590991e+00  4.4502006143573638e+00  3.1161596542634289e+00  1.0879807514777143e+01  8.7488400044534007e+00  -1.4468568812624730e+01  1.1033256322888698e+00  -2.5144747925848492e+01  4.8108067305530042e+00  -1.4960761314320091e+01  6.8796922906962159e+00  -2.1694906245840311e+01  -1.5785144979163119e+00  -7.2118735465503638e+00  6.6611142862808737e-01  -5.1926515557265409e+00  -4.6803728699835423e+00  -6.3011794174240316e+00  7.2266075161043313e+00  1.0503328086477953e+01  1.1851051592372997e+01  1.7382028759508220e+01  1.1658864141765097e+01  4.2308095351631252e+00  -4.2689214168962959e+00  -6.6525586205424361e+00  -4.3394551509939170e+00  -7.9304531342678670e+00  -1.9749329820605983e+01  -1.5504231583072126e+00  3.4871759172121339e+00  -1.0269337742521877e+01  -1.0806643094116763e+01  3.1347612341831694e+00  5.5063595329588049e+00  4.0404126904490631e+00  -1.4939537771523728e+01  -2.0049377222599126e+01  1.4845411737350378e+00  1.5248821613321732e+01  -1.3612132486252547e+01  -2.3685822686628542e+00  -2.0104876562839884e+01  1.3995302899184646e+01  4.8914529017501645e+00  3.4922565899232771e+00  -3.8129912913257367e+00  -5.1229721142458313e+00  2.6695425625943741e+00