<?xml version="1.0"?>
<VTKFile type="UnstructuredGrid"  version="0.1"  >
<UnstructuredGrid>
<Piece  NumberOfPoints="5185" NumberOfCells="10070">
<Points>
<DataArray  type="Float64"  NumberOfComponents="3"  format="ascii">0 1.5 0  0 0 0  0.1232405621108402 0 0  0.1232405621108402 0.02253860454731437 0  0.1476111412843772 0.06045996594834066 0  0.1886148129381372 0.07918571535047463 0  0.2332332010401509 0.07277055962836147 0  0.2673002826264945 0.0432512653964478 0  0.28 0 0  0.5342215165449864 0 0  0.5342215165449864 0.02394141003279682 0  0.5649999999999999 0.06062177826491071 0  0.6121553724366851 0.06893654271085457 0  0.6536231110183285 0.04499513267805775 0  0.6699999999999999 0 0  0.91 0 0  0.9220577136594005 0.04499999999999999 0  0.9550000000000001 0.07794228634059948 0  1 0.09 0  1.045 0.07794228634059946 0  1.077942286340599 0.04499999999999999 0  1.09 0 0  1.52324056211084 0 0  1.52324056211084 0.02253860454731437 0  1.547611141284377 0.06045996594834066 0  1.588614812938137 0.07918571535047463 0  1.633233201040151 0.07277055962836147 0  1.667300282626495 0.0432512653964478 0  1.68 0 0  1.84 0 0  1.857573593128807 0.04242640687119285 0  1.9 0.06 0  1.942426406871193 0.04242640687119285 0  1.96 0 0  2.22324056211084 0 0  2.22324056211084 0.02253860454731437 0  2.247611141284377 0.06045996594834066 0  2.288614812938137 0.07918571535047463 0  2.333233201040151 0.07277055962836147 0  2.367300282626494 0.0432512653964478 0  2.38 0 0  2.534221516544986 0 0  2.534221516544986 0.02394141003279682 0  2.565 0.06062177826491071 0  2.612155372436685 0.06893654271085457 0  2.653623111018328 0.04499513267805775 0  2.67 0 0  3 0 0  3 1.5 0  0 0.75 0  1.5 1.5 0  0 0.375 0  0.75 1.5 0  2.25 1.5 0  3 0.75 0  1.216228490499689 0.8069757125887627 0  1.965682393638027 0.8065702515463131 0  0.6025408912810675 0.8974591087189325 0  2.494676348647751 0.9946763486477508 0  2.356709259621435 0.5447946099875809 0  0.8599642199210003 0.5226206461323684 0  0.4216394361293908 0.4974105777134379 0  0.375 1.5 0  0 1.125 0  1.875 1.5 0  1.591091407334617 1.058091082812092 0  1.125 1.5 0  1.590810830624645 0.5394732912049653 0  0.9375 1.13479915923725 0  3 0.375 0  3 1.125 0  2.625 1.5 0  1.995245765771775 0.4277948434396763 0  2.145880954246818 1.137688199332401 0  1.227783477957362 0.427141979786574 0  2.705436295205127 0.5625 0  1.268702849688826 1.133996222613609 0  0.3526676910824388 1.147332308917561 0  0.3097907151415997 0.7889144057821572 0  0.903221947180751 0.828141240074398 0  0.6461527570085278 1.190944174645022 0  2.258488242757536 0.8210127920483788 0  2.400058919161888 1.260760484185309 0  2.778889354513028 0.9375 0  2.725079155390203 1.225079155390203 0  1.853608154101008 1.201589046866999 0  2.540576981905353 0.3370046821869876 0  0.7811555507088518 0.2732832036972447 0  1.493222576519009 0.798835058995101 0  1.747409300790817 0.3184283662481822 0  1.459899526511598 0.3067772450698331 0  0.1875 1.5 0  0 0.5625 0  2.521594883841638 0.7403247928378012 0  0.2438476629309629 0.32244155773108 0  3 0.1875 0  2.776470677837637 0.28125 0  2.121241022911138 0.6281701698960991 0  1.728545483402697 0.8581016441191361 0  1.012422318322288 0.3271268474523591 0  2.305755967143385 0.3144626442661202 0  1.30662028105542 0 0  1.6875 1.5 0  1.8265892939935 0.6051726401583923 0  0.5458598773451642 0.2962606377138959 0  0 0.9375 0  1.349377516922966 0.6209336375388498 0  1.079656249611334 0.612728400373996 0  0.7151087041654347 0.6989529576230681 0  2.0625 1.5 0  1.59375 1.288981971791887 0  2.085107439753329 0.2191742438537923 0  0.6402689932842839 0.4934943541428904 0  1.228474271256239 0.2064231070567615 0  1.3125 1.5 0  1.06968030723948 0.9647793670181679 0  0.2113350105157037 0.5332932754427466 0  0 1.3125 0  0.5051540211699285 0.7110632261327643 0  0.4775171365050886 1.316467280173536 0  1.967112413780365 1.020384154410382 0  0.8191736043349165 1.304781661824189 0  1.103455205015878 1.280328263155604 0  0.7649318329201844 1.023310716596371 0  0.2120544860962804 0.9823800432730223 0  1.359100570345391 0.9517705003379791 0  0.1711043107784345 1.21875 0  3 1.3125 0  2.8125 1.5 0  2.714178691455841 0.7554813872281284 0  2.217815962767571 1.313132398873298 0  2.020480176543968 1.307095379623413 0  2.29875620117699 1.013690599387144 0  0.3848285295772316 0.1937040883803935 0  0.9375 1.5 0  3 0.9375 0  2.4375 1.5 0  3 0.5625 0  0 0.1875 0  0.5625 1.5 0  2.835 0 0  1.386383673099448 1.305536509588035 0  1.773513842966063 1.0362399691084 0  2.179843036592861 0.4515211056338026 0  0.4134910794700652 0.9582824971065591 0  2.107214813096467 0.9125353945687058 0  1.916698009609654 0.2702971158297667 0  2.533006985360663 0.5155509623987015 0  2.838574938309606 0.4465309273225452 0  0.3016597101560133 1.338635596991575 0  1.641573393474498 0.7066136805426366 0  2.855238878880983 0.65625 0  1.398074618385877 0.1459865472102536 0  1.756539173374812 1.342993235461221 0  2.434593137832078 0.2067018044975929 0  1.434366740555482 0.4743139981449843 0  1.440742946818836 1.142108619191562 0  0.549043549720087 1.055391704395 0  2.571565919072277 1.32487216700893 0  2.535776521770127 1.159155922815097 0  2.652193336606067 1.04269083214613 0  0.660031172970541 1.35825582857438 0  2.607645482283307 0.8780318994093907 0  1.09590027081365 1.121554905778777 0  0.1474979543625655 0.8283466240195498 0  1.056776372361757 0.7739494406659941 0  0.3647560414155882 0.6427945145874604 0  1.699724067482516 1.17405657891935 0  0.913786173488833 0.9822051271795349 0  0.9283491691592597 0.66876089182342 0  0.7498959802087029 0.8498501951910959 0  0.3951228082283652 0.3465404522808934 0  1.23887612906836 1.360760366473919 0  0.1206420558503055 0.65625 0  1.735537276557186 0.4760109437618505 0  1.799297742536812 0.1791526413061006 0  1.970987958006469 0.6541756362249113 0  1.080810552147559 0.461742062484039 0  2.268149337929528 0.6688757993926466 0  2.413602460817152 0.8574959373397593 0  2.833998248858927 1.096635576389 0  2.71875 1.378451438260757 0  2.001906612723158 1.162230131308666 0  2.859452984352005 0.8083820929207302 0  2.688478120768856 0.4086214703657035 0  1.214106348747711 0.9519545202622776 0  2.850368184690094 1.307066142740315 0  1.864893983840636 0.9141560734025058 0  1.60661446108863 0.2395589708587393 0  1.61163060570479 0.3901968276506504 0  2.771867619212225 0.1335769833684914 0  0.7969119039620236 1.163109784140262 0  0.9599416701963486 1.276596315583475 0  2.103624150445193 0.7698297553089299 0  2.279721363034605 1.185280797873663 0  2.34375 1.392122382816539 0  0.1382307077648764 1.361769292235123 0  0.1426478344893104 0.2175212356047023 0  2.406413880432258 1.104106228251116 0  2.414971181397263 0.4111042519521358 0  2.637277274673136 0.2192348292007474 0  1.353600469573883 0.7646239317376279 0  1.494012125944227 0.651091825511382 0  1.590274899157226 0.9102986199774393 0  1.028633500752755 1.396325660524358 0  1.829615743479497 0.7518128394998403 0  1.861059000344659 0.3963812297683985 0  0.510900777690535 1.185277566959035 0  1.213080286311768 0.6640546084318578 0  0.79 0 0  0.8167897395818556 0.1376517357725223 0  0.9319739747594649 0.2144569310211157 0  1.889188139713804 1.330032757791382 0  0.655714683266079 0.2049689967103183 0  2.09162028105542 0 0  0.1359367774292784 0.4137345801986589 0  0.4380798275211911 0.8267965724704243 0  2.40400705830434 0.6721965963037969 0  0.3027633520173528 0.4394586980387968 0  0.8782788855287165 0.379708545377904 0  0.7595213470930909 0.4371189613680841 0  1.317967779309324 0.3170637160852436 0  0.6053759621699666 0.6225641226781395 0  0.6530309552265516 0.3661735489900947 0  2.594089294631991 0.631328821944253 0  0 1.03125 0  0.1304283746114646 1.089970844689444 0  0.4071107582724932 0 0  1.469526282978338 1.017083854458662 0  1.088959023533499 0.2104112015424126 0  1.161808378403757 0.3165749773273478 0  2.172966779463329 0.3188379172988492 0  2.216343768168092 0.1920401700474863 0  3 0.09375 0  1.905024675365066 0.5108806275986008 0  1.702014103004408 0.5963171944847371 0  0.2428042557945101 0.6514309613450368 0  3 1.40625 0  0.262372466757009 0.191725613649506 0  2.116791485436391 1.387145016777417 0  1.96875 1.5 0  2.885528053432104 0.3345800153572822 0  2.875601419873791 0.2042517854891826 0  2.298911783255236 0.4400662366556407 0  2.459247322083259 1.363881377923602 0  0.9735587139454543 0.5585353431007029 0  1.176315140569268 0.5379697839544898 0  2.0296370010214 0.5459700999805513 0  0.4987416453488727 0.4060939323248423 0  0.5397511702990104 0.1771676763212877 0  3 1.21875 0  2.238710633113112 0.5542203056099733 0  1.19831014052771 0 0  1.583962270593198 1.173633921912192 0  1.650563144166832 1.390075718520202 0  1.496025571730155 1.371899864460592 0  3 1.03125 0  2.887481932992674 0.9890041589451042 0  0.247836885460272 1.094286258989912 0  0.4719220056590702 0.6009044603312741 0  1.97565550452845 0.1615660574331665 0  2.131135530378305 0.1108580974478677 0  1.318642333542132 0.5051755928544708 0  1.217460132329928 1.242599824876711 0  1.511891312109549 0.1714963794002952 0  2.174601400318987 1.01685942781215 0  0.9082882406313817 1.384236564302014 0  0.6140422604397168 0.7728109899968187 0  0.8289359680247524 0.7347587321432018 0  0.741509926624258 0.5729763888559004 0  2.058356323822746 0.3313153147701495 0  0.4534336320756143 0.1034622594748756 0  1.40625 1.5 0  1.689084537897351 0.9628079283127213 0  1.156270839633873 0.1228556218721798 0  1.29033806179015 0.1118395069726669 0  1.460859151915469 0.9057320169622244 0  2.326558662668462 0.1831424028173474 0  0.9693052477371982 0.4460054238200853 0  0.6625304018229865 1.076650755704414 0  1.41493042158313 0 0  0.4485426513928407 1.096421738127594 0  0.2454589766548061 0.8778352103982039 0  0.1115239912906509 0.9339683416032414 0  1.134782462834443 0.8782884736059876 0  0.9999448991609674 1.04695529392896 0  0.9835215815673453 0.9000292002687431 0  2.53125 1.5 0  0.3175564878698739 1.010319294269645 0  1.971944763694389 0.9134401013848152 0  2.06
[...]
<PointData  Scalars="f_66"> 
<DataArray  type="Float64"  Name="f_66"  format="ascii">1.4044238140702236e+01  -2.6163886589729842e+01  -2.3890903411644413e+01  -2.3858980162665731e+01  -2.2161430706933949e+01  -2.1399422984850805e+01  -2.3564133594137196e+01  -2.4393388617008984e+01  -2.6011231910314528e+01  -2.2158490746511308e+01  -2.1765644226336121e+01  -2.3330531609576965e+01  -2.2752188407635376e+01  -2.2819657115860217e+01  -2.2386327328716483e+01  -2.2995253210853299e+01  -2.2012602186872854e+01  -2.1067949569388897e+01  -1.9331047019914525e+01  -1.8397115907975692e+01  -2.0505355035303264e+01  -2.0838740987598904e+01  -2.1288713522024260e+01  -2.0153169428764777e+01  -1.9061986514760665e+01  -1.7410753679583657e+01  -1.6057292191320936e+01  -1.7841798288047762e+01  -1.7925019812850891e+01  -1.9363005862451384e+01  -1.7466867074810089e+01  -1.5365618996822409e+01  -1.4863057384478116e+01  -1.5776718320657855e+01  -1.4601020099136960e+01  -1.4206282309364470e+01  -1.3034886362266898e+01  -1.2530723367853680e+01  -1.3326512908909255e+01  -1.3875330995226188e+01  -1.4905434345116474e+01  -1.1607878558294189e+01  -1.1391183794489107e+01  -1.0920198320661010e+01  -1.0889770947597301e+01  -1.0532683254807743e+01  -1.0406808569035000e+01  0.0000000000000000e+00  0.0000000000000000e+00  -8.3883564554859777e+00  1.8900141342356235e+01  -1.8132231311419087e+01  1.3725633969651179e+01  1.5651591059465112e+01  0.0000000000000000e+00  -3.0736661426973413e+00  -7.2208267097048240e-01  -2.7601497591593538e+00  3.1929886474976668e+00  -4.3893938843719580e+00  -1.1348864324229236e+01  -1.3453510113998970e+01  1.3440027603157905e+01  1.5200416834866524e+00  1.7026914983047973e+01  4.0841511280875888e+00  1.5667238066974074e+01  -8.2117104181995977e+00  4.2226943748733019e+00  0.0000000000000000e+00  0.0000000000000000e+00  1.3779901426851135e+01  -8.8122334718832498e+00  6.5847326739277463e+00  -1.2306088464625937e+01  -2.4671474685148431e+00  5.1337006398857241e+00  2.9252080360340722e+00  -6.4130467253465371e+00  -3.5622845841471737e+00  4.8217809999978796e+00  3.3549769793672146e-01  8.7679331343119333e+00  1.1500360819417417e+00  5.2562550193296786e+00  7.9633534352051401e+00  -6.7514299891947127e+00  -1.7821623389570313e+01  -2.4092884247618822e+00  -1.2713762649631619e+01  -1.4337558440053318e+01  1.2258157939976609e+01  -1.3325673473058512e+01  -6.7043870321743027e-01  -1.8605503784767365e+01  0.0000000000000000e+00  -5.5808295834328874e+00  -4.0552599045844540e+00  -2.8362289224002196e-01  -1.5678487826017177e+01  -9.2268556503841364e+00  -1.9494848550017966e+01  1.5995836720210351e+01  -5.7518254690901545e+00  -1.8175354339819961e+01  -3.4530469146730542e+00  -7.1510740118308105e+00  -8.3261447192947831e+00  -7.3799399659949909e+00  1.8627473395190705e+01  9.7148277400786949e+00  -1.2895446265523084e+01  -1.2814811075615896e+01  -1.7598903135374265e+01  1.5313972785253373e+01  3.1935318093366333e-01  -1.3347449260904744e+01  6.6030321495847737e+00  -7.8270208949280855e+00  7.4887601567584037e+00  3.9602095316825907e+00  8.0479632213228847e+00  8.2002723474774744e+00  8.6623189278285551e-01  -1.7693495374547341e+00  8.7150891290716148e-01  4.2343236079869486e+00  0.0000000000000000e+00  9.3185966408518013e+00  -2.3965711675176937e-01  1.0527299373958403e+01  1.0532399000582013e+01  4.1509978448512506e+00  -2.1142354073564956e+01  1.6565352185798972e+01  0.0000000000000000e+00  1.8048729132511308e+01  0.0000000000000000e+00  -2.2392120792194707e+01  1.5767773955923580e+01  -7.7500030734725192e+00  9.5887736090541082e+00  3.9243269739688702e+00  -7.4167180970931454e+00  -1.7508646180410794e+00  1.7904912059250691e+00  -1.2908799898364704e+01  -3.9453866370181609e+00  -2.5013972910984941e+00  7.8505963219080179e+00  -4.0695159907152147e+00  -5.6299866544658717e-01  -1.8343317956637538e+01  1.1383961480618797e+01  -1.0433760830494707e+01  -1.0397353055770402e+01  5.6554522774261393e+00  1.0144595251471495e+00  9.0366459500791265e+00  5.9790620998421300e+00  3.9133306260074483e+00  9.2467135266736520e+00  1.8064606233414560e+00  4.2388562437247543e+00  -5.9293184832089798e+00  -4.4145066895449814e+00  -9.9436144853366919e+00  7.0155208459084637e+00  3.2079995473778627e-01  -7.4297740607830587e+00  -3.5061780284714441e+00  -1.7325814303901453e+01  1.0960300374202840e+01  -1.0467188722692859e+01  -9.0571716856172841e+00  -1.5581341901514440e+01  -3.9967654170960238e+00  -1.2057013117385150e+01  -2.4940573850795968e+00  1.0786596037782412e+00  2.1748745072115385e+00  9.0425836897907530e+00  7.1676764741609365e+00  4.5427893870063452e-01  -4.5145862935373913e+00  4.6620326683920266e-01  3.7742015069940833e+00  1.3311679083820731e+00  -1.5319603415144671e+01  -1.1693693643609794e+01  -7.7321307573241569e+00  4.4192740732223443e+00  7.8702448526062003e+00  -1.1719921387986190e+00  7.5813719406308104e+00  1.2335530392612519e+01  8.0508360096479308e+00  -2.1164785555667937e+01  5.5393265636732520e+00  -6.6963329041914612e+00  -7.7544095906907904e+00  -3.6650887261414322e+00  -5.9289410820714590e+00  5.6019968367712192e-01  1.1493403118609091e+01  -2.4291688267615590e+00  -1.0369516290144041e+01  4.1733429363239285e+00  -6.5794638243843329e+00  -2.1337359759385372e+01  -2.0949069908699833e+01  -1.8758040866043036e+01  1.1148753234123737e+01  -2.0010718075060758e+01  -1.7043482450316596e+01  -1.6594373017969463e+01  -5.0507887057643774e+00  -2.0918845006044919e+00  -1.5365910053446393e+01  -1.4841297123247683e+01  -1.3822703644284847e+01  -1.4600858940660160e+01  -9.6960705361808213e+00  -1.5980510703833245e+01  -1.6085908397492128e+00  -9.5512364755283941e-01  8.5101898021592015e-01  -2.2838132925963656e+01  2.7282051872512998e+00  -1.8086536880114835e+01  -1.5324098773773466e+01  -1.0236730134675092e+01  -1.2472384083284561e+01  0.0000000000000000e+00  -7.5305985102517443e+00  -6.3985191805537625e+00  -1.0205355232416032e+01  0.0000000000000000e+00  -2.1681489833182617e+01  1.3258024366913270e+01  1.6167164420441615e+01  -2.4115017484517165e+00  -5.0893433132331802e+00  -6.6937461727865220e+00  1.0994217213773727e+01  -1.0009419366287995e+01  -9.8130146699279148e+00  -6.0477846720839397e+00  -1.5553349701594705e+01  -2.1131083061551831e+01  0.0000000000000000e+00  -4.9224476183871477e+00  -2.1795727119127491e+01  6.8563485181432933e+00  1.2682606457754838e+01  1.2075775217500482e+01  0.0000000000000000e+00  1.5927755392993936e+00  1.2071855565366754e+00  -1.0705862081786638e+01  -1.4690252624525035e+01  -1.4596643236080196e+01  -1.0054631074503048e+01  7.6718125361317338e+00  -1.7266281782405422e+01  3.9833964861894584e+00  1.1068283144794169e+01  -5.8622479210070786e+00  -6.1739332023057392e+00  -1.0472706416402973e+01  -1.0594533701029588e+01  -2.1984755966868885e+01  1.5798866882034117e+01  2.0377566086340528e+00  -1.9694193484968459e+01  -1.9396918574995535e+01  3.0873934000656598e-02  -1.1842805292918761e+01  -1.2847617436728612e+01  1.9911788937732593e+00  -2.0057326498350033e+01  1.8257201981944466e+00  -4.3661776236774141e+00  -3.2684162560585088e+00  -1.6377083505450860e+00  2.2205533240930198e+00  -1.4745493891852635e+00  1.3974566148542285e+01  -6.9799924236460864e-01  1.6227736946463502e+00  5.2012319499765356e+00  5.8844265281491364e+00  -1.4046874007015665e+01  1.1143519630026493e+01  2.0270360309386701e+00  -1.2594565017018247e+01  -2.0391203556613529e+01  8.2260083260718240e+00  3.0345814061726446e+00  8.5986016679553163e+00  -1.3103053555410140e+00  -8.8778069021577422e-01  9.5228775450380034e+00  5.2030174743906370e+00  6.8778118924373626e+00  -1.9192165664074763e+00  -8.9148450853685173e+00  5.1472409091985414e+00  2.1816547689839507e+00  -5.7711084062294278e+00  -1.1964268362895522e+01  -7.0301680078844608e-01  7.4869081819137273e+00  1.2325870952018921e+01  1.0582626541969574e+01  6.4106293219952546e+00  3.5130516710561253e+00  2.1804545764244052e+00  0.0000000000000000e+00  6.1965483483522803e+00  -2.3910675482457773e+01  2.4275115826125626e+00  -1.3110362554693382e+00  -8.6843087130800924e+00  -1.0325962830523394e+00  -8.7224431994324014e+00  -2.8757522620051419e+00  1.2735164174800284e+01  1.0126140818128865e+01  -1.5136656509177008e+01  -4.2696405529669290e+00  -7.7591976787086114e+00  5.0269692360327580e+00  5.5234599713739252e+00  1.3131694992891745e+01  -1.2040886415426113e+01  -1.5809880915128236e+01  6.0385367209906216e+00  -3.9452980826716835e+00  -2.8851768333773751e+00  5.6590397264310894e+00  -7.4348891834617348e+00  4.7963624064159296e+00  9.5290307815831401e+00  9.0332999648743062e+00  3.4508196628187147e+00  3.7780275966742911e+00  1.4098539371806464e+01  -1.8980202528212047e+01  -1.1908665070149789e+01  -5.9817698315298751e+00  1.5705311548509941e+01  -1.2760818001474671e+01  -2.3682415625938109e+01  1.2383271365600036e+01  9.6564879987460035e+00  1.5980166812102718e+00  4.0211177985177962e+00  5.6480902411525591e+00  3.7636069934882599e+00  3.2295792898202608e-01  -1.2016178304446885e+00  4.7650391612624388e-01  -1.5298264972202757e+00  -6.0219597520675840e+00  -1.9169069702767441e+01  -1.9583747576156302e+01  0.0000000000000000e+00  1.1165579007263184e+00  -8.4023238309186699e+00  -1.7653044219637799e+01  2.6750749471368955e+00  1.0011636247512625e+01  8.4180473542115344e+00  1.3225992634597585e+01  -1.6137222869233472e+01  -2.2969291706396401e+01  -3.3693687325087835e+00  7.1770643988084224e+00  2.3313916444606440e+00  -2.1123063970235570e+01  -2.7485385664129908e-01  1.4527617241508521e+01  1.7053890795971359e+01  1.5902525978022744e+01  1.7991789253420411e+01  -1.5753764466458335e+01  -1.0892718404017570e+01  -5.9722893117514415e+00  1.4934959580127865e+01  0.0000000000000000e+00  0.0000000000000000e+00  1.6240917498764720e+01  1.5576242410136285e+01  1.9278166264813823e+01  1.8103052693505390e+01  -8.2806473562201806e+00  -7.5508953782148556e+00  -5.8054871254849143e+00  -3.9558364021629466e+00  -5.6218959970886540e-01  3.3130746492653779e-01  -5.4965659983484416e+00  4.7267195335687333e+00  5.9035241421388429e+00  2.9177051206564628e+00  8.4308913591739536e+00  1.1539772715820076e+01  -2.4196264882607865e+00  1.8333224839954592e+00  -9.8422443322179127e+00  1.5897119454036008e+00  -2.4708272654595795e+00  -5.2694291598363678e+00  -4.8578816005221430e+00  -5.6973956974451756e+00  -4.9858099675367367e+00  9.3525497982878498e+00  8.4841677117650995e+00  6.3342201443305735e+00  -1.3789472125604227e+00  -1.4974442880024979e+01  2.9822210550089343e+00  5.5225296119387357e-01  -1.7383225753820237e+00  -4.0442023432350078e+00  -2.0247714716534175e+00  -1.2862907415180654e+01  -1.0901537475040817e+01  -1.2484819398258796e+01  -2.8648647124687825e+00  -1.9656517958564045e+01  -8.9265157234433516e+00  -7.3427775967999613e+00  -8.5299711372941349e+00  -6.1362426390011766e+00  -8.1644046939998471e+00  -1.6578238059833733e+01  2.8162959249950923e+00  4.2989933889659566e+00  -1.3722660435125650e+01  -7.8155677583328078e+00  -4.6517761403375175e+00  -5.4564561658502175e-01  3.2591005330880995e-01  5.1935472183491127e+00  5.5717485515987875e+00  7.5433367328841108e+00  -1.2178604124535019e+01  -2.6328335040785182e+00  1.9632505473411088e+00  6.2648619584559153e+00  1.3881030897814371e+01  -9.0610910821018678e+00  2.8722745384403745e+00  3.2633623781677703e+00  6.8182644849066971e+00  4.7045488040015231e+00  -8.5175762433022317e+00  7.3409909428544831e+00  -1.6589720076720983e+01  -1.6545958470027944e+01  5.7006524779876697e+00  -9.7480942427171140e+00  -1.8800388294698099e+01  2.9568096926078851e+00  -1.6462859583548300e-01  -1.4800699689711617e+01  -1.4249630759270401e+01  -4.7544916946359933e-01  -5.1186318974203395e+00  -6.7770791440800648e+00  1.8964009648781450e+00  -1.5664192365866189e+01  4.7516433453652320e+00  -9.2266393471792281e+00  1.0428439110793848e+01  -1.1974198643370272e+01  -3.6367481527309446e+00  1.1125924850803736e+01  -1.0221866501885987e+01  -9.6850004664789964e+00  -1.1182461290956329e+01  -1.9634706259625926e+01  7.2174220245669076e+00  -1.8926600804006565e+01  -3.4757185479809336e+00  -1.7664467483072119e+01  -1.3296800120410346e+01  -1.0829989881575973e+01  1.1676773284111606e+01  -1.7848674242004687e+01  1.4683288989256955e+00  1.3412717075499829e+01  -1.9671406796489464e+01  3.7771225798134305e+00  7.5688930097391316e-01  7.3023951001678056e-01  4.2306182433678936e+00  1.0572212692498562e+01  2.3719675406752443e+00  9.1094746036281009e+00  -1.7034292599048960e+01  7.2775808560382202e+00  -5.8178340326031739e+00  9.4013052940996982e+00  1.3490901879517331e+01  2.3327269660532202e+00  5.1800757249831406e+00  -1.8918087804819240e+01  -1.2202794023147283e+00  -1.8956465005211520e+01  9.8830962090492802e-01  9.3501602476915018e+00  6.8256365510545445e+00  -2.1133976424702528e+01  9.7816673797878284e+00  -3.9606257907881517e+00  -1.4249155064625810e+01  -4.4957607302419582e+00  -8.9911542799991633e+00  -8.5786803803998772e+00  -1.1622426557806127e+01  -1.3787246624704808e+01  -2.1040427040196779e+01  -2.1880008038052504e-01  -9.5526317318569056e+00  -3.2309463774314420e+00  -5.5173885626356824e+00  -5.3171584025118888e+00  -1.6569178791070636e+00  1.2417545368604145e+01  -4.0040587636606428e+00  -1.0391249028165590e+00  9.0383408025823915e+00  1.1811084549145455e+01  -1.7319625691040745e+01  -1.5412602078702731e+01  -2.3707547476686543e+00  -1.2282187478369071e+01  -1.1881196054264732e+01  -3.5959535862108352e+00  -3.7987670328496872e+00  7.3690209222410963e-01  -1.5515760486742041e+01  -1.0731231331354333e+01  -1.7442759625271904e+01  -1.6355120374597771e+01  -1.0121608310838759e+01  -1.1743549050500706e+01  -2.7078057258252919e+00  8.4218493441586162e+00  -2.0370761025038256e+01  -7.7124913368197934e+00  2.2239166000289861e+00  -3.7616786477638002e+00  -6.1674293538651872e+00  -1.0118553847674210e+01  5.5229739845093229e-01  2.1651979738036400e+00  1.1534026899727097e+01  1.1778264435233060e+01  -1.4742133658447910e+01  1.4164900955836382e+01  -1.6549274741519557e+01  -1.4153731542893068e+01  -6.3466753129734510e+00  1.0190648322215925e+01  -4.4410774811778397e+00  -2.0769330854127244e+00  -1.6762836488422842e+01  3.7422165060240858e-01  2.3714313617662750e+00  -9.4618606980157383e-01  -4.0335032422119177e-01  -9.2049852408031434e+00  -7.4313293333401029e+00  -1.7340863231593740e+01  -6.0035103009470714e-01  1.3113698836343705e+01  2.6124864492427022e+00  -1.7783456024468780e+01  -2.8365665498777370e+00  -1.6886162725371648e+01  -1.0450160722282062e+00  1.0874542731133060e+01  7.8990350694784741e+00  -1.6643966431464101e+01  -1.9547123706934027e+01  -2.6363795886599637e+00  3.0971699453287811e+00  -1.0429660637272184e+01  5.5861395310458848e+00  6.9659250559996018e+00  1.4792906188333443e+01  1.0662023754289469e+00  -7.6030592457809414e+00  -5.7498379242595679e+00  -7.2079489803304888e+00  -1.3526141721604718e+01  -2.0133742557213502e+01  -2.2049529583245420e+01  -8.8781114646573300e+00  -1.4436477729731484e+01  2.6896367733656277e+00  -1.4381203901365494e+00  -3.2964745578003085e+00  -3.5812026563538644e+00  1.6211817000698905e-01  -1.3096645231556412e+00  9.5417217463556303e-01  7.8227968215455024e-01  -1.0826501057929413e+01  -2.0041347399515391e+01  1.4093573653163824e+01  -1.0941368868584174e+01  1.0154974076520729e+01  -2.0844751852613388e+01  -2.1040978174149878e+01  -4.2856248038519125e+00  8.0023822510607037e+00  -1.2924307290157717e+01  8.7777095953225217e+00  -5.4524021447277766e+00  -2.7267298896655281e+00  -2.6568235799311015e+00  6.0379670292167367e+00  8.0158073158947154e+00  7.9345473580908052e+00  -4.5846492817358557e+00  2.6846209454234571e+00  6.2104189628793947e+00  -6.9485001810646150e+00  4.0741217883665803e-01  -7.5685235018486701e+00  -4.8957328825016457e+00  1.5443222707458167e+01  1.4318357846437673e+01  1.0543874326628844e+01  -2.1666659840330265e+01  -2.5535939729163681e+00  -2.2181350397076944e+01  3.2997826580169782e+00  4.2236225328076129e+00  -2.5138808902997237e+01  -2.4033019672342252e+01  -1.6339622943473337e+01  -1.3845323001957530e+01  -1.3504966199372525e+01  9.0641756818423431e+00  -1.6099097391408936e+01  7.6752888297048338e+00  -5.8431620502622019e+00  1.2839753766110942e+01  -1.4840411807912824e+01  -5.1759607989687275e+00  -6.6446517625375492e+00  3.6345874213310956e+00  -1.0401890751699050e+01  -2.2356283336833634e+01  6.1780902055059768e+00  -9.1653226147277280e+00  -8.0769598128176341e+00  5.9737078535148118e+00  -7.7334992549273993e+00  4.0960989716335083e-01  -1.8291977139708727e+01  -1.9233946543573548e+01  1.4165814106418177e+01  -7.2754422379417941e-02  -1.3629225328048953e+00  -1.4454731742967684e+01  -1.5986264795313765e+01  -6.8182566860358156e+00  -4.0721195816348166e+00  3.5903866413071759e+00  3.5455066048544448e+00  3.2655062367617144e-01  1.3112552256777484e+01  9.7992239970923638e+00  9.8728126668313454e+00  7.4117888282472491e+00  -9.0514134263135038e+00  5.8186412619778070e+00  -9.8713418239652106e-01  -1.1063579089183964e+00  3.5212496962401540e-01  -1.1933663293350627e+01  -1.2231735397846107e+01  -1.1466820398275759e+01  -5.9783265984625231e+00  5.3753540612532094e+00  -1.6474270750605204e+00  -7.2402988044026735e+00  6.9636584489000777e+00  -2.3460004977148050e+00  -1.5153740578908708e+00  -1.4035812975916700e+01  2.4382773783837677e+00  5.9720644593414454e+00  4.5489495885419862e+00  -9.0794507635227173e-01  -1.2417791512732753e+01  -1.3738540269696658e+01  -1.2633830892966836e+01  -1.0387151325629755e+01  -1.3798501737744610e+01  2.5726894167652108e+00  1.2488490728741661e+01  -6.8325077971852561e+00  -2.6529735985040337e-01  5.9674504646178743e+00  -1.1954041317518296e+01  -1.3414841940416283e+01  -3.3405001323013024e+00  -5.8414331095646270e+00  -6.5018567428389735e+00  -8.3731917991603098e+00  3.7156967076309528e+00  -1.6042975267837118e+01  -1.6436344084013960e+01  -1.1195904884143159e+01  -8.9836806592408198e+00  1.1626519227953493e+01  1.0676858126143928e+01  -8.8404543660624739e+00  -9.8245244672668761e+00  9.8229836648032194e+00  9.8313713796608440e+00  1.3184300806208645e+01  -1.0998616788698056e+01  -1.3956512589246993e+01  -8.4784237871793966e+00  -9.8763058718867338e+00  -6.7206162286492601e+00  -1.4026094433397274e+01  -1.6945092290663389e+01  -1.1520703442406498e+01  -6.0132125874017825e+00  -1.4797199082151653e+01  1.1452897672763745e+01  -1.7994423787319336e+00  6.9022962521126212e+00  -4.2904819971137291e+00  -1.9026321054638004e+01  6.6113574890240194e+00  -2.1769379454120813e+01  4.6058550760876296e+00  -2.1534385133376613e+01  6.5558636787548741e+00  -1.1877132713611211e+01  -1.9530200328728348e+01  -7.3925646824113880e+00  -2.1501522163219889e+01  -9.3623713934143424e+00  -5.3316234359881687e+00  -6.2537185655721528e+00  1.2860464279582169e+01  5.8535049528691259e+00  -2.6571555392692345e+00  3.6456321012816071e+00  2.1787893005939183e+00  4.2716875128946068e+00  2.9210010640439599e+00  1.0670046153550340e+01  8.5546324971747474e+00  -1.4916986575303959e+01  8.9772975173386371e-01  -2.5697825266950080e+01  4.6367995594954188e+00  -1.5348455344314175e+01  6.6785621771882315e+00  -2.2140225703555664e+01  -1.5347733500539744e+00  -7.4046809238654490e+00  4.8283518643978812e-01  -5.3913775081480919e+00  -4.8828139818176721e+00  -6.1338321616884546e+00  7.0928769435420103e+00  1.0321421054115769e+01  1.1634719432745198e+01  1.6756930530354488e+01  1.1443614118193258e+01  4.0342920190970375e+00  -4.4625295611729188e+00  -6.8416593383977187e+00  -4.4827309890223592e+00  -8.1338015623502109e+00  -1.9970272755085922e+01  -1.7426941068503541e+00  3.2784321456970935e+00  -1.0464408299100610e+01  -1.0992157453728074e+01  2.9409993324525097e+00  5.3401630273045990e+00  3.8625684838943601e+00  -1.5331836680600487e+01  -2.0221037018054819e+01  1.3391742296772657e+00  1.4718371703483395e+01  -1.3834153714767277e+01  -2.5654579245003259e+00  -2.0613071233828432e+01  1.3599837331136376e+01  4.6997345687556686e+00  3.2881866189404150e+00  -3.9166049504283991e+00  -5.3188483737141583e+00  2.5034949767557984e+