<?xml version="1.0"?>
<VTKFile type="UnstructuredGrid"  version="0.1"  >
<UnstructuredGrid>
<Piece  NumberOfPoints="5185" NumberOfCells="10070">
<Points>
<DataArray  type="Float64"  NumberOfComponents="3"  format="ascii">0 1.5 0  0 0 0  0.1232405621108402 0 0  0.1232405621108402 0.02253860454731437 0  0.1476111412843772 0.06045996594834066 0  0.1886148129381372 0.07918571535047463 0  0.2332332010401509 0.07277055962836147 0  0.2673002826264945 0.0432512653964478 0  0.28 0 0  0.5342215165449864 0 0  0.5342215165449864 0.02394141003279682 0  0.5649999999999999 0.06062177826491071 0  0.6121553724366851 0.06893654271085457 0  0.6536231110183285 0.04499513267805775 0  0.6699999999999999 0 0  0.91 0 0  0.9220577136594005 0.04499999999999999 0  0.9550000000000001 0.07794228634059948 0  1 0.09 0  1.045 0.07794228634059946 0  1.077942286340599 0.04499999999999999 0  1.09 0 0  1.52324056211084 0 0  1.52324056211084 0.02253860454731437 0  1.547611141284377 0.06045996594834066 0  1.588614812938137 0.07918571535047463 0  1.633233201040151 0.07277055962836147 0  1.667300282626495 0.0432512653964478 0  1.68 0 0  1.84 0 0  1.857573593128807 0.04242640687119285 0  1.9 0.06 0  1.942426406871193 0.04242640687119285 0  1.96 0 0  2.22324056211084 0 0  2.22324056211084 0.02253860454731437 0  2.247611141284377 0.06045996594834066 0  2.288614812938137 0.07918571535047463 0  2.333233201040151 0.07277055962836147 0  2.367300282626494 0.0432512653964478 0  2.38 0 0  2.534221516544986 0 0  2.534221516544986 0.02394141003279682 0  2.565 0.06062177826491071 0  2.612155372436685 0.06893654271085457 0  2.653623111018328 0.04499513267805775 0  2.67 0 0  3 0 0  3 1.5 0  0 0.75 0  1.5 1.5 0  0 0.375 0  0.75 1.5 0  2.25 1.5 0  3 0.75 0  1.216228490499689 0.8069757125887627 0  1.965682393638027 0.8065702515463131 0  0.6025408912810675 0.8974591087189325 0  2.494676348647751 0.9946763486477508 0  2.356709259621435 0.5447946099875809 0  0.8599642199210003 0.5226206461323684 0  0.4216394361293908 0.4974105777134379 0  0.375 1.5 0  0 1.125 0  1.875 1.5 0  1.591091407334617 1.058091082812092 0  1.125 1.5 0  1.590810830624645 0.5394732912049653 0  0.9375 1.13479915923725 0  3 0.375 0  3 1.125 0  2.625 1.5 0  1.995245765771775 0.4277948434396763 0  2.145880954246818 1.137688199332401 0  1.227783477957362 0.427141979786574 0  2.705436295205127 0.5625 0  1.268702849688826 1.133996222613609 0  0.3526676910824388 1.147332308917561 0  0.3097907151415997 0.7889144057821572 0  0.903221947180751 0.828141240074398 0  0.6461527570085278 1.190944174645022 0  2.258488242757536 0.8210127920483788 0  2.400058919161888 1.260760484185309 0  2.778889354513028 0.9375 0  2.725079155390203 1.225079155390203 0  1.853608154101008 1.201589046866999 0  2.540576981905353 0.3370046821869876 0  0.7811555507088518 0.2732832036972447 0  1.493222576519009 0.798835058995101 0  1.747409300790817 0.3184283662481822 0  1.459899526511598 0.3067772450698331 0  0.1875 1.5 0  0 0.5625 0  2.521594883841638 0.7403247928378012 0  0.2438476629309629 0.32244155773108 0  3 0.1875 0  2.776470677837637 0.28125 0  2.121241022911138 0.6281701698960991 0  1.728545483402697 0.8581016441191361 0  1.012422318322288 0.3271268474523591 0  2.305755967143385 0.3144626442661202 0  1.30662028105542 0 0  1.6875 1.5 0  1.8265892939935 0.6051726401583923 0  0.5458598773451642 0.2962606377138959 0  0 0.9375 0  1.349377516922966 0.6209336375388498 0  1.079656249611334 0.612728400373996 0  0.7151087041654347 0.6989529576230681 0  2.0625 1.5 0  1.59375 1.288981971791887 0  2.085107439753329 0.2191742438537923 0  0.6402689932842839 0.4934943541428904 0  1.228474271256239 0.2064231070567615 0  1.3125 1.5 0  1.06968030723948 0.9647793670181679 0  0.2113350105157037 0.5332932754427466 0  0 1.3125 0  0.5051540211699285 0.7110632261327643 0  0.4775171365050886 1.316467280173536 0  1.967112413780365 1.020384154410382 0  0.8191736043349165 1.304781661824189 0  1.103455205015878 1.280328263155604 0  0.7649318329201844 1.023310716596371 0  0.2120544860962804 0.9823800432730223 0  1.359100570345391 0.9517705003379791 0  0.1711043107784345 1.21875 0  3 1.3125 0  2.8125 1.5 0  2.714178691455841 0.7554813872281284 0  2.217815962767571 1.313132398873298 0  2.020480176543968 1.307095379623413 0  2.29875620117699 1.013690599387144 0  0.3848285295772316 0.1937040883803935 0  0.9375 1.5 0  3 0.9375 0  2.4375 1.5 0  3 0.5625 0  0 0.1875 0  0.5625 1.5 0  2.835 0 0  1.386383673099448 1.305536509588035 0  1.773513842966063 1.0362399691084 0  2.179843036592861 0.4515211056338026 0  0.4134910794700652 0.9582824971065591 0  2.107214813096467 0.9125353945687058 0  1.916698009609654 0.2702971158297667 0  2.533006985360663 0.5155509623987015 0  2.838574938309606 0.4465309273225452 0  0.3016597101560133 1.338635596991575 0  1.641573393474498 0.7066136805426366 0  2.855238878880983 0.65625 0  1.398074618385877 0.1459865472102536 0  1.756539173374812 1.342993235461221 0  2.434593137832078 0.2067018044975929 0  1.434366740555482 0.4743139981449843 0  1.440742946818836 1.142108619191562 0  0.549043549720087 1.055391704395 0  2.571565919072277 1.32487216700893 0  2.535776521770127 1.159155922815097 0  2.652193336606067 1.04269083214613 0  0.660031172970541 1.35825582857438 0  2.607645482283307 0.8780318994093907 0  1.09590027081365 1.121554905778777 0  0.1474979543625655 0.8283466240195498 0  1.056776372361757 0.7739494406659941 0  0.3647560414155882 0.6427945145874604 0  1.699724067482516 1.17405657891935 0  0.913786173488833 0.9822051271795349 0  0.9283491691592597 0.66876089182342 0  0.7498959802087029 0.8498501951910959 0  0.3951228082283652 0.3465404522808934 0  1.23887612906836 1.360760366473919 0  0.1206420558503055 0.65625 0  1.735537276557186 0.4760109437618505 0  1.799297742536812 0.1791526413061006 0  1.970987958006469 0.6541756362249113 0  1.080810552147559 0.461742062484039 0  2.268149337929528 0.6688757993926466 0  2.413602460817152 0.8574959373397593 0  2.833998248858927 1.096635576389 0  2.71875 1.378451438260757 0  2.001906612723158 1.162230131308666 0  2.859452984352005 0.8083820929207302 0  2.688478120768856 0.4086214703657035 0  1.214106348747711 0.9519545202622776 0  2.850368184690094 1.307066142740315 0  1.864893983840636 0.9141560734025058 0  1.60661446108863 0.2395589708587393 0  1.61163060570479 0.3901968276506504 0  2.771867619212225 0.1335769833684914 0  0.7969119039620236 1.163109784140262 0  0.9599416701963486 1.276596315583475 0  2.103624150445193 0.7698297553089299 0  2.279721363034605 1.185280797873663 0  2.34375 1.392122382816539 0  0.1382307077648764 1.361769292235123 0  0.1426478344893104 0.2175212356047023 0  2.406413880432258 1.104106228251116 0  2.414971181397263 0.4111042519521358 0  2.637277274673136 0.2192348292007474 0  1.353600469573883 0.7646239317376279 0  1.494012125944227 0.651091825511382 0  1.590274899157226 0.9102986199774393 0  1.028633500752755 1.396325660524358 0  1.829615743479497 0.7518128394998403 0  1.861059000344659 0.3963812297683985 0  0.510900777690535 1.185277566959035 0  1.213080286311768 0.6640546084318578 0  0.79 0 0  0.8167897395818556 0.1376517357725223 0  0.9319739747594649 0.2144569310211157 0  1.889188139713804 1.330032757791382 0  0.655714683266079 0.2049689967103183 0  2.09162028105542 0 0  0.1359367774292784 0.4137345801986589 0  0.4380798275211911 0.8267965724704243 0  2.40400705830434 0.6721965963037969 0  0.3027633520173528 0.4394586980387968 0  0.8782788855287165 0.379708545377904 0  0.7595213470930909 0.4371189613680841 0  1.317967779309324 0.3170637160852436 0  0.6053759621699666 0.6225641226781395 0  0.6530309552265516 0.3661735489900947 0  2.594089294631991 0.631328821944253 0  0 1.03125 0  0.1304283746114646 1.089970844689444 0  0.4071107582724932 0 0  1.469526282978338 1.017083854458662 0  1.088959023533499 0.2104112015424126 0  1.161808378403757 0.3165749773273478 0  2.172966779463329 0.3188379172988492 0  2.216343768168092 0.1920401700474863 0  3 0.09375 0  1.905024675365066 0.5108806275986008 0  1.702014103004408 0.5963171944847371 0  0.2428042557945101 0.6514309613450368 0  3 1.40625 0  0.262372466757009 0.191725613649506 0  2.116791485436391 1.387145016777417 0  1.96875 1.5 0  2.885528053432104 0.3345800153572822 0  2.875601419873791 0.2042517854891826 0  2.298911783255236 0.4400662366556407 0  2.459247322083259 1.363881377923602 0  0.9735587139454543 0.5585353431007029 0  1.176315140569268 0.5379697839544898 0  2.0296370010214 0.5459700999805513 0  0.4987416453488727 0.4060939323248423 0  0.5397511702990104 0.1771676763212877 0  3 1.21875 0  2.238710633113112 0.5542203056099733 0  1.19831014052771 0 0  1.583962270593198 1.173633921912192 0  1.650563144166832 1.390075718520202 0  1.496025571730155 1.371899864460592 0  3 1.03125 0  2.887481932992674 0.9890041589451042 0  0.247836885460272 1.094286258989912 0  0.4719220056590702 0.6009044603312741 0  1.97565550452845 0.1615660574331665 0  2.131135530378305 0.1108580974478677 0  1.318642333542132 0.5051755928544708 0  1.217460132329928 1.242599824876711 0  1.511891312109549 0.1714963794002952 0  2.174601400318987 1.01685942781215 0  0.9082882406313817 1.384236564302014 0  0.6140422604397168 0.7728109899968187 0  0.8289359680247524 0.7347587321432018 0  0.741509926624258 0.5729763888559004 0  2.058356323822746 0.3313153147701495 0  0.4534336320756143 0.1034622594748756 0  1.40625 1.5 0  1.689084537897351 0.9628079283127213 0  1.156270839633873 0.1228556218721798 0  1.29033806179015 0.1118395069726669 0  1.460859151915469 0.9057320169622244 0  2.326558662668462 0.1831424028173474 0  0.9693052477371982 0.4460054238200853 0  0.6625304018229865 1.076650755704414 0  1.41493042158313 0 0  0.4485426513928407 1.096421738127594 0  0.2454589766548061 0.8778352103982039 0  0.1115239912906509 0.9339683416032414 0  1.134782462834443 0.8782884736059876 0  0.9999448991609674 1.04695529392896 0  0.9835215815673453 0.9000292002687431 0  2.53125 1.5 0  0.3175564878698739 1.010319294269645 0  1.971944763694389 0.9134401013848152 0  2.06
[...]
<PointData  Scalars="f_66"> 
<DataArray  type="Float64"  Name="f_66"  format="ascii">1.1881777018844460e+01  -2.9042011459768599e+01  -2.6490109359103577e+01  -2.6137746219995645e+01  -2.4751031436152687e+01  -2.4271014327697873e+01  -2.5940636065410285e+01  -2.7179944715248038e+01  -2.8957862879616808e+01  -2.5346384485130407e+01  -2.4939491171334144e+01  -2.5407718964275251e+01  -2.5216566824082584e+01  -2.5010196088754224e+01  -2.5187159479466587e+01  -2.6233627988286411e+01  -2.4698931645827180e+01  -2.3283136571755382e+01  -2.1619623027897671e+01  -2.1068948267147217e+01  -2.2657528443641148e+01  -2.3517282390505240e+01  -2.4008871985829682e+01  -2.3006065861729496e+01  -2.1473756420345691e+01  -1.9697844435878181e+01  -1.8728647901887530e+01  -1.9800141336413596e+01  -2.0562819506284040e+01  -2.2108939758864050e+01  -2.0056294024949096e+01  -1.7887933756136860e+01  -1.7416662455969401e+01  -1.8000789098699503e+01  -1.6867782064643574e+01  -1.6560280187815458e+01  -1.5088857969064632e+01  -1.4333330063664226e+01  -1.5109142004017219e+01  -1.5985268331833552e+01  -1.7475110075700908e+01  -1.3474818108710677e+01  -1.3195699150523593e+01  -1.1895281469793209e+01  -1.1274617685470146e+01  -1.1427755015455615e+01  -1.2329612335531491e+01  0.0000000000000000e+00  0.0000000000000000e+00  -9.4099798178700151e+00  1.5812055569583379e+01  -1.9158770848544041e+01  1.0935069740969244e+01  1.2811901300984504e+01  0.0000000000000000e+00  -4.0472986315885464e+00  -1.7077829623700884e+00  -3.7251388048492347e+00  2.4283811873513828e+00  -5.2505262385224416e+00  -1.2319495120867126e+01  -1.4475155941989982e+01  1.1261183230132501e+01  5.3831930036425935e-01  1.4607420683235922e+01  3.0963659830774830e+00  1.3180382835095312e+01  -9.1619962041742866e+00  3.2261482796674632e+00  0.0000000000000000e+00  0.0000000000000000e+00  1.1550825793019454e+01  -9.7711960766015959e+00  5.6153790815601266e+00  -1.3310606840419281e+01  -2.6099104994936231e+00  4.1277440664155911e+00  1.9259072783201650e+00  -7.3920829171364053e+00  -4.5299417811638643e+00  3.8166490686414019e+00  -6.4315036134349457e-01  7.6844763634896749e+00  9.1762494955161822e-01  4.4774113216461702e+00  6.9591177331599230e+00  -7.3213026096185096e+00  -1.8900329638449715e+01  -3.3579556189093926e+00  -1.3651967820267345e+01  -1.5345491249005047e+01  9.8714010824548080e+00  -1.4354456937149349e+01  -1.3491895415197872e+00  -1.9539020520844105e+01  0.0000000000000000e+00  -4.9969361699843837e+00  -4.9164742912705499e+00  -1.2433507508929362e+00  -1.6617750007620071e+01  -1.0043589120567111e+01  -2.2253124896182229e+01  1.3442772089459218e+01  -6.6678512115547210e+00  -1.9203075499878359e+01  -4.4360564392298238e+00  -8.1258023488462303e+00  -9.2925570534926454e+00  -8.3753139584103433e+00  1.5741002030536468e+01  8.6721974576755070e+00  -1.3823862620865784e+01  -1.3829017218514553e+01  -1.8744012131536447e+01  1.2729609435838146e+01  -6.2541669338709860e-01  -1.4303820708897835e+01  5.4908496577452413e+00  -8.7697333691529575e+00  6.5010381189325352e+00  2.9601710480411794e+00  7.1220368198781170e+00  7.2787509932797096e+00  -7.5407157118937432e-02  -2.6978673842213667e+00  -8.4465382864570393e-02  3.3000108655950795e+00  0.0000000000000000e+00  7.1704783701183841e+00  -6.3682810157652536e-01  9.4151190743248652e+00  9.5095468073675971e+00  3.0536720818443319e+00  -2.2325987539327393e+01  1.3886699792205278e+01  0.0000000000000000e+00  1.4509245966525924e+01  0.0000000000000000e+00  -2.3666065020776589e+01  1.2911309206928594e+01  -6.8287217135303599e+00  8.6163475195379267e+00  2.9727180620859022e+00  -8.2081094971345774e+00  -2.7353290159786501e+00  8.4941324891924908e-01  -1.3802836359282145e+01  -4.5460489469012044e+00  -2.3311044284422504e+00  6.7342732677955626e+00  -5.0330580256166080e+00  -8.0395919384288872e-01  -1.9577072166287216e+01  1.0288655239669755e+01  -1.1089957859957455e+01  -1.1360399533631377e+01  4.7416293429669505e+00  1.0069443137359715e-01  7.8729126499213420e+00  5.0411643469288316e+00  2.7370693125627326e+00  8.1153439956336015e+00  7.4663802320093198e-01  3.3225217483805087e+00  -6.8872881144374993e+00  -5.3812508556012428e+00  -1.0954093950416954e+01  6.0701725307493675e+00  -6.5300702190187132e-01  -8.4186073801276553e+00  -4.4711789854756905e+00  -1.8403050143234985e+01  9.7588375308223938e+00  -1.1456995962410186e+01  -1.0014912649272606e+01  -1.6687707394938045e+01  -4.9741192596936292e+00  -1.3022902922744121e+01  -3.4471034168701342e+00  2.4369828027591414e-01  1.9412604580194022e+00  7.4177628073153175e+00  6.1630415839800117e+00  5.2567096730173644e-02  -4.5320576480800669e+00  -5.0276243013712785e-01  3.7258310242117965e+00  3.8442197180031912e-01  -1.6262494875976955e+01  -1.2627090377565874e+01  -7.2343744780174672e+00  3.5104487674695348e+00  6.8381106681940009e+00  -2.0892468316405211e+00  6.4957146103969086e+00  1.0972021662884398e+01  6.8700242892851078e+00  -2.2350298847644723e+01  4.5581076724953720e+00  -7.2865527366694867e+00  -8.0433317635208201e+00  -4.6314574766827219e+00  -6.8793946817218075e+00  -4.1377367740405369e-01  9.9804673904761554e+00  -3.3583803372367331e+00  -1.1245669358705197e+01  3.2753760770679210e+00  -7.5573133448129406e+00  -2.4295624416205637e+01  -2.2184741205551266e+01  -1.9760625851660670e+01  1.0048044087436752e+01  -2.1151723749343830e+01  -1.9828815222130608e+01  -1.7609495158072004e+01  -6.0228660809229009e+00  -2.8440196507619802e+00  -1.6362794390828693e+01  -1.5836458863014844e+01  -1.4834018903619125e+01  -1.5663938024593653e+01  -1.0677937584288701e+01  -1.7024480641690324e+01  -2.4311548019407456e+00  -1.9382499801596136e+00  -1.0363548476237339e-01  -2.5724104144797494e+01  1.7945589788943912e+00  -1.9114417403652133e+01  -1.6292752446998307e+01  -1.1022876037596751e+01  -1.3371641080428335e+01  0.0000000000000000e+00  -8.4303078817130164e+00  -7.3669354543782797e+00  -1.1160136511174819e+01  0.0000000000000000e+00  -2.2757173231670944e+01  1.1597055725872938e+01  1.3392542863290515e+01  -2.3495249464212620e+00  -3.7162956085622136e+00  -7.5878345732074264e+00  9.6300316044061773e+00  -1.1006765411500831e+01  -1.0786465437513019e+01  -7.0268104519859280e+00  -1.6553611478877766e+01  -2.2274855029178909e+01  0.0000000000000000e+00  -5.7899630219164235e+00  -2.4821073282854826e+01  5.8530976703507163e+00  1.1218178663305688e+01  1.0701044282049722e+01  0.0000000000000000e+00  9.7504815046274307e-01  2.8280377508143417e-01  -1.1678215760500013e+01  -1.5789137830905556e+01  -1.5951534888863229e+01  -1.1052649988533958e+01  6.6738791454728270e+00  -1.8466881813045468e+01  3.0616864358393947e+00  9.6101974114513897e+00  -6.8412245495815034e+00  -7.1139219883666538e+00  -1.1466189896283574e+01  -1.1511221346987210e+01  -2.3985707639152480e+01  1.3314648966619668e+01  1.0772138591658200e+00  -2.1042615915108929e+01  -2.0774460466111915e+01  -9.0428138371760669e-01  -1.2637898218421405e+01  -1.3830122282828139e+01  9.8543357167068757e-01  -2.2622376284458518e+01  8.7230040130194364e-01  -5.3065442796208826e+00  -4.2285405570712840e+00  -2.5662798167695273e+00  1.2209934441106864e+00  -2.4778831207632561e+00  1.1308856883544040e+01  -1.6763496451544846e+00  6.2455787478083014e-01  4.2035219354260409e+00  4.8935300436073659e+00  -1.5068933596340475e+01  9.9838966142146202e+00  1.1099514484901167e+00  -1.3594110804855060e+01  -2.1466959322178923e+01  7.2540403969213703e+00  2.9166874238273546e+00  7.5888013047793832e+00  -2.2277724640316712e+00  -1.0697840603670083e+00  8.2449404402676798e+00  4.2080973639972692e+00  5.9000947921685531e+00  -2.8851564056361245e+00  -9.8687859183527014e+00  4.9103525126636178e+00  1.0929417160800738e+00  -5.1280347262869901e+00  -1.2825188618150507e+01  -1.7214072177661546e+00  6.4865082128676175e+00  1.0792088816952864e+01  9.1822406896875730e+00  5.4189204062111163e+00  2.5687890630384191e+00  1.2636225183191061e+00  0.0000000000000000e+00  5.2136253339568954e+00  -2.5834537460015451e+01  1.5126310490597834e+00  -2.3092605153150485e+00  -9.2956055351177369e+00  -2.0242425343676698e+00  -9.2800530192630184e+00  -3.4140583426669164e+00  1.0199908626297379e+01  8.7720436605741874e+00  -1.6091077288218408e+01  -5.2266885271400110e+00  -8.7047557260545823e+00  4.7795786354768044e+00  4.2859789205371328e+00  1.1630783257291098e+01  -1.3005807328405455e+01  -1.7238369106315222e+01  5.0930501941749924e+00  -4.9415226633498710e+00  -3.8093982515362628e+00  4.6501727119073033e+00  -8.4354195589960455e+00  3.8567830258450542e+00  8.2974021528436150e+00  8.0028994439396790e+00  2.8275512160889584e+00  2.8038062018621863e+00  1.2321571125053799e+01  -2.0009942357464357e+01  -1.2866174816264625e+01  -6.3171851393313121e+00  1.3113089973509163e+01  -1.3760291140267373e+01  -2.5266370591116164e+01  1.0123030735688729e+01  8.0815918486545595e+00  8.6926295310806612e-01  3.0053933229027345e+00  4.6203379803075340e+00  2.7982146640278232e+00  1.2609105754777275e-01  -1.6526307569588781e+00  -4.9799796589763240e-01  -2.3776570679804561e+00  -6.9696357700314202e+00  -2.0269758810785273e+01  -2.0671101522271812e+01  0.0000000000000000e+00  4.6631542754195315e-01  -9.3990387121272594e+00  -1.9336864732467848e+01  1.6751214583420708e+00  8.8940262627840223e+00  7.4066810079704251e+00  1.1703919980607168e+01  -1.7222949353786575e+01  -2.4311140794984645e+01  -3.9520817164856363e+00  5.9359538183140064e+00  1.6675181630844664e+00  -2.2734052521007161e+01  -1.2540810104932425e+00  1.1733184785585278e+01  1.4452316567624750e+01  1.2107753888695978e+01  1.5023576554250020e+01  -1.6777106438589083e+01  -1.1902677062302075e+01  -6.9448799635517364e+00  1.2502850264526183e+01  0.0000000000000000e+00  0.0000000000000000e+00  1.3794667747770276e+01  1.2638795577318707e+01  1.6152235753405161e+01  1.5158581686585714e+01  -9.2333390483561004e+00  -8.4522339929818706e+00  -6.6210245886752954e+00  -4.9145533338145402e+00  -1.2794935281667568e+00  -5.3346319714974755e-01  -6.4262824894216282e+00  3.7715981555577724e+00  4.9329894914977075e+00  1.9303156788721543e+00  7.4771961226772952e+00  9.7618109356050553e+00  -2.2264916428920056e+00  8.8064554935532002e-01  -1.0286781644323812e+01  8.4032014216353845e-01  -3.4361844546569111e+00  -6.2196899809374058e+00  -5.4800720013283160e+00  -6.2101614579197717e+00  -5.5180208461142612e+00  8.3876157023218791e+00  7.5252079809683483e+00  5.4357757065481085e+00  -2.3287478895897142e+00  -1.5955124383733141e+01  1.9731185783735101e+00  -4.5403578623085089e-01  -1.6460086184018179e+00  -3.5988938335822480e+00  -1.3217170338936515e+00  -1.3790016480905170e+01  -1.1828908056778591e+01  -1.3369029863851830e+01  -3.8456053702847059e+00  -2.1219768638374891e+01  -8.9588970222608708e+00  -6.8720480546927041e+00  -9.3535572088008223e+00  -7.0939446659246173e+00  -9.1452660627521070e+00  -1.7553673067678751e+01  2.1579818742527790e+00  3.3577348753013241e+00  -1.4652935872771211e+01  -8.7299709871592377e+00  -5.6433380490985172e+00  -6.2111156476685581e-01  -1.4489074857266132e-01  4.2202788589768403e+00  4.6149099986112878e+00  6.6304165174838134e+00  -1.3196338576986092e+01  -3.5686670137708663e+00  1.6921427554527726e+00  5.3599672565145777e+00  1.2348062564066907e+01  -9.8901142818311154e+00  1.7333610926891228e+00  2.7022719586868842e+00  5.8973134801417091e+00  3.8893357002735840e+00  -9.4788331876410208e+00  6.2554804749882056e+00  -1.7988678719624989e+01  -1.7490347060682019e+01  4.5862643432082537e+00  -1.0569933168846251e+01  -2.1146097320145543e+01  2.0043472558050688e+00  -1.0967167527307315e+00  -1.5802924690624559e+01  -1.5201071186191061e+01  -1.4169706600735210e+00  -6.1198827034898118e+00  -7.7676707054647522e+00  1.1989587923346567e+00  -1.6692733733180837e+01  3.6626527556815249e+00  -5.9753606580821135e+00  9.3140257909068378e+00  -1.3090550520649057e+01  -4.5735225520339773e+00  9.2577873217296318e+00  -1.1166841835142527e+01  -1.0637121653641543e+01  -1.2134699582602067e+01  -2.0815548188538774e+01  6.1682080884713146e+00  -2.0050608562764911e+01  -3.3154232715089171e+00  -1.8860923023653875e+01  -1.4234038527770853e+01  -1.1756503021030094e+01  1.0569079592861996e+01  -1.8919493187767031e+01  5.0446618780106178e-01  1.1935737866846640e+01  -2.2093182252246670e+01  2.7865777848733337e+00  -2.9476448918231696e-01  -9.3084322983720796e-02  3.2407500143257240e+00  9.0119580935877881e+00  1.6520683760073567e+00  8.0678446867428146e+00  -1.8405294792219731e+01  6.1537898242178306e+00  -6.7681263966254566e+00  8.3693132996040944e+00  1.1820938596018888e+01  1.5284712678524666e+00  4.7330670196314752e+00  -2.0009714872734797e+01  -2.1713489050354249e+00  -2.0196394399005115e+01  -1.3119194793416410e-02  8.1246882283402400e+00  5.8023614496171732e+00  -2.2272269871788332e+01  8.7373541937499901e+00  -4.9630626683110002e+00  -1.5281416707472586e+01  -2.9592300791444304e+00  -9.9773916920804915e+00  -9.5607999967495338e+00  -1.2638606228395137e+01  -1.5922626712834147e+01  -2.2335731629728951e+01  -4.5181042111263048e-01  -1.0532006529694726e+01  -4.1563819059577618e+00  -6.4841516667279162e+00  -4.9310544582935689e+00  -2.6140778416457402e+00  1.0715993970117196e+01  -4.9168316736488933e+00  -1.9698787437779561e+00  7.0469292028935353e+00  9.8651320954403126e+00  -1.8341511774344976e+01  -1.6456057562744469e+01  -3.3346551567528375e+00  -1.3266689266976227e+01  -1.2895371658933392e+01  -4.5638483187940100e+00  -4.6242710160469152e+00  4.4556514019038540e-01  -1.6505032892439644e+01  -1.1537458630135614e+01  -1.8411873090503654e+01  -1.7292917879946614e+01  -1.1087731384807201e+01  -1.2715740681173006e+01  -3.6745927362418627e+00  7.3463700583398888e+00  -2.1843000060756182e+01  -8.7073912119473960e+00  1.2395022704955889e+00  -4.3714121757823667e+00  -5.5311649723383178e+00  -1.0868045723449425e+01  -3.5962086121740428e-01  1.2287056712858329e+00  9.9758155605119292e+00  1.0463731343672078e+01  -1.5711827946752855e+01  1.2508363218070411e+01  -1.8135525312798823e+01  -1.5107562422968190e+01  -7.3273745698755155e+00  9.0652632463367322e+00  -5.4262533953028829e+00  -3.0475718012843598e+00  -1.7803846228842080e+01  -6.2853722066948259e-01  1.3939022253121558e+00  -1.9110162791953793e+00  -1.3708868042948932e+00  -9.3502135137078923e+00  -7.4076605087166429e+00  -1.8381050642970795e+01  -1.4834690428551056e+00  1.0827215282443298e+01  1.6433274162727349e+00  -1.8845133600496119e+01  -3.8285114343768067e+00  -1.8009247570526814e+01  -1.9615933420789031e+00  8.7188706407936714e+00  6.7442943395494730e+00  -1.7701662571723158e+01  -2.0650480149276490e+01  -1.9751476823479497e+00  2.1889193199514394e+00  -1.1427809139244950e+01  4.5798933766642884e+00  5.9714596466855090e+00  1.2703704740406693e+01  1.7866877777659335e-01  -8.4118929941857967e+00  -6.5372532849576857e+00  -7.6939439898986102e+00  -1.4499114162873308e+01  -2.1100003750430599e+01  -2.3560067746189318e+01  -9.4095924824713641e+00  -1.5555744800010677e+01  1.7435157542812996e+00  -2.4440644205040187e+00  -4.2994229078800510e+00  -4.5199392086281476e+00  -7.5994333302438311e-01  -2.2800330735281586e+00  -4.1484738991216526e-02  2.0131735910138715e-01  -1.1837474638834593e+01  -2.2058121758685669e+01  1.1914023456525390e+01  -1.1923045981506720e+01  8.6711094141659970e+00  -2.3943135462172069e+01  -2.3502029436338148e+01  -5.2323567579542365e+00  7.0129173083871503e+00  -1.3907283381575253e+01  7.7774479080248549e+00  -6.4305812426085964e+00  -3.6673203891145576e+00  -3.4075263732506991e+00  5.0265009612098686e+00  6.9953036118135072e+00  6.9271684297179590e+00  -5.5476725754416334e+00  1.7513329860004847e+00  5.3091120326022967e+00  -7.9033437182049928e+00  -5.7316896392955008e-01  -8.5251646084156878e+00  -5.8604383094613324e+00  1.2763597677153980e+01  1.2276836420136364e+01  9.3251541320255811e+00  -2.3054669774941761e+01  -3.4208449150752962e+00  -2.3635095298477808e+01  2.3489407316089017e+00  3.2994333349550522e+00  -2.7867086718679630e+01  -2.5947444486038073e+01  -1.7451139047344704e+01  -1.4821515374182473e+01  -1.4468559627582643e+01  7.9809017049584829e+00  -1.7144564151243333e+01  6.6148461195236896e+00  -6.8481513475051470e+00  1.1114170066566528e+01  -1.5823391414876429e+01  -6.0851508769080542e+00  -6.5028911456245453e+00  3.1745072483153893e+00  -1.1018319699815217e+01  -2.4118637180787388e+01  5.1668288794918134e+00  -1.0171485076769400e+01  -9.0409992698777035e+00  4.9975802224425045e+00  -8.6910035262540539e+00  -5.9550827857356736e-01  -1.9307307267640372e+01  -2.0686276546711486e+01  1.2481878680660495e+01  -9.9970112439482517e-01  -1.4026220780912326e+00  -1.5489491888621341e+01  -1.7036799381156126e+01  -7.7684619126534198e+00  -3.6830748671150042e+00  2.6330920662474426e+00  3.2038760059751814e+00  -3.2434731624091612e-01  1.1305161316894742e+01  8.6961324532293602e+00  8.8051875064440654e+00  6.4047641478193178e+00  -9.9526174057183461e+00  5.3085175878540660e+00  -8.8501823462904472e-01  -1.1706646816426254e+00  -6.0685333574837064e-01  -1.2917809308173350e+01  -1.3244642978045318e+01  -1.2342552137153906e+01  -6.9470471683434036e+00  4.4293647036052013e+00  -2.3102135453680495e+00  -7.7706376186411097e+00  5.9706897737964004e+00  -3.3176311885244019e+00  -2.1038380361305777e+00  -1.4934571953565358e+01  1.5362888082140649e+00  5.0755596533126290e+00  3.6144336891951565e+00  -1.8840533395451173e+00  -1.3395172608271960e+01  -1.4982065886180045e+01  -1.3774509348364983e+01  -1.1339703524092652e+01  -1.4791124392061873e+01  1.6241600113457999e+00  1.0686153082921710e+01  -7.7842348825949461e+00  -1.0575711882106280e+00  5.0017958429780114e+00  -1.2766503793183016e+01  -1.4353271048731447e+01  -4.3114864822855523e+00  -6.8453104749321794e+00  -7.4573095331626913e+00  -9.3266697574516151e+00  2.6150784951031723e+00  -1.8633817919932312e+01  -1.7442506142147611e+01  -1.2043418507575808e+01  -9.9129709210818024e+00  1.0407079794904242e+01  9.5735162015074007e+00  -9.8059321416496932e+00  -1.0813831785686697e+01  8.8314563079798969e+00  8.7799636100997791e+00  1.1112758819471798e+01  -1.1986622826581613e+01  -1.4983190877975202e+01  -9.4715120596906086e+00  -1.0830536744663098e+01  -7.7152324733084399e+00  -1.5054850050431748e+01  -1.9081620992152608e+01  -1.2511379424784419e+01  -6.9548757821305376e+00  -1.5752102582630995e+01  1.0312919448994800e+01  -2.4186591811784490e+00  5.9512761064582813e+00  -3.6374116261667240e+00  -2.0367205142141081e+01  5.6528379900381589e+00  -2.3535851437751322e+01  3.6023086054411730e+00  -2.4390929261075502e+01  5.3914867448627257e+00  -1.2839658203131700e+01  -2.0660854388076338e+01  -8.3511740026903389e+00  -2.4787926384220615e+01  -1.0267266076150838e+01  -6.2602260193175772e+00  -7.0976725993483578e+00  1.0264708032975902e+01  4.8729658818416732e+00  -2.9351132562829871e+00  2.6739649303019637e+00  1.2514175895011856e+00  3.3437517689710634e+00  1.8821212053459651e+00  9.5719198340961089e+00  7.4501416113407313e+00  -1.6620927361774534e+01  -7.2846156626078157e-02  -2.8141995172029517e+01  3.6792552870599664e+00  -1.6907487920287220e+01  5.6681662427321280e+00  -2.3995646347405636e+01  -1.2017812851757086e+00  -8.3563610862820106e+00  -4.5433464591616962e-01  -6.3474476892868639e+00  -5.8513812845915867e+00  -5.2507376653455067e+00  6.1897424330739215e+00  9.1522945083697262e+00  1.0441968310247383e+01  1.3938247211888214e+01  1.0251330349340684e+01  3.0443608747657689e+00  -5.4157787918699629e+00  -7.7834661674185712e+00  -5.1275785743218574e+00  -9.1114404769692570e+00  -2.1057131252781616e+01  -2.6942560547778118e+00  2.1875746245098457e+00  -1.1427266801224736e+01  -1.1773253318531065e+01  1.9733373368695775e+00  4.3950215914809112e+00  2.8802835218121814e+00  -1.6977300885478467e+01  -2.1183561556102315e+01  5.7602973996543760e-01  1.2507560704795640e+01  -1.4809256504779354e+01  -3.5308771578004619e+00  -2.2665780043148725e+01  1.1860655797293619e+01  3.7891993648234008e+00  2.3345693536731540e+00  -4.4231527562374087e+00  -6.2263808150273841