<?xml version="1.0"?>
<VTKFile type="UnstructuredGrid"  version="0.1"  >
<UnstructuredGrid>
<Piece  NumberOfPoints="5185" NumberOfCells="10070">
<Points>
<DataArray  type="Float64"  NumberOfComponents="3"  format="ascii">0 1.5 0  0 0 0  0.1232405621108402 0 0  0.1232405621108402 0.02253860454731437 0  0.1476111412843772 0.06045996594834066 0  0.1886148129381372 0.07918571535047463 0  0.2332332010401509 0.07277055962836147 0  0.2673002826264945 0.0432512653964478 0  0.28 0 0  0.5342215165449864 0 0  0.5342215165449864 0.02394141003279682 0  0.5649999999999999 0.06062177826491071 0  0.6121553724366851 0.06893654271085457 0  0.6536231110183285 0.04499513267805775 0  0.6699999999999999 0 0  0.91 0 0  0.9220577136594005 0.04499999999999999 0  0.9550000000000001 0.07794228634059948 0  1 0.09 0  1.045 0.07794228634059946 0  1.077942286340599 0.04499999999999999 0  1.09 0 0  1.52324056211084 0 0  1.52324056211084 0.02253860454731437 0  1.547611141284377 0.06045996594834066 0  1.588614812938137 0.07918571535047463 0  1.633233201040151 0.07277055962836147 0  1.667300282626495 0.0432512653964478 0  1.68 0 0  1.84 0 0  1.857573593128807 0.04242640687119285 0  1.9 0.06 0  1.942426406871193 0.04242640687119285 0  1.96 0 0  2.22324056211084 0 0  2.22324056211084 0.02253860454731437 0  2.247611141284377 0.06045996594834066 0  2.288614812938137 0.07918571535047463 0  2.333233201040151 0.07277055962836147 0  2.367300282626494 0.0432512653964478 0  2.38 0 0  2.534221516544986 0 0  2.534221516544986 0.02394141003279682 0  2.565 0.06062177826491071 0  2.612155372436685 0.06893654271085457 0  2.653623111018328 0.04499513267805775 0  2.67 0 0  3 0 0  3 1.5 0  0 0.75 0  1.5 1.5 0  0 0.375 0  0.75 1.5 0  2.25 1.5 0  3 0.75 0  1.216228490499689 0.8069757125887627 0  1.965682393638027 0.8065702515463131 0  0.6025408912810675 0.8974591087189325 0  2.494676348647751 0.9946763486477508 0  2.356709259621435 0.5447946099875809 0  0.8599642199210003 0.5226206461323684 0  0.4216394361293908 0.4974105777134379 0  0.375 1.5 0  0 1.125 0  1.875 1.5 0  1.591091407334617 1.058091082812092 0  1.125 1.5 0  1.590810830624645 0.5394732912049653 0  0.9375 1.13479915923725 0  3 0.375 0  3 1.125 0  2.625 1.5 0  1.995245765771775 0.4277948434396763 0  2.145880954246818 1.137688199332401 0  1.227783477957362 0.427141979786574 0  2.705436295205127 0.5625 0  1.268702849688826 1.133996222613609 0  0.3526676910824388 1.147332308917561 0  0.3097907151415997 0.7889144057821572 0  0.903221947180751 0.828141240074398 0  0.6461527570085278 1.190944174645022 0  2.258488242757536 0.8210127920483788 0  2.400058919161888 1.260760484185309 0  2.778889354513028 0.9375 0  2.725079155390203 1.225079155390203 0  1.853608154101008 1.201589046866999 0  2.540576981905353 0.3370046821869876 0  0.7811555507088518 0.2732832036972447 0  1.493222576519009 0.798835058995101 0  1.747409300790817 0.3184283662481822 0  1.459899526511598 0.3067772450698331 0  0.1875 1.5 0  0 0.5625 0  2.521594883841638 0.7403247928378012 0  0.2438476629309629 0.32244155773108 0  3 0.1875 0  2.776470677837637 0.28125 0  2.121241022911138 0.6281701698960991 0  1.728545483402697 0.8581016441191361 0  1.012422318322288 0.3271268474523591 0  2.305755967143385 0.3144626442661202 0  1.30662028105542 0 0  1.6875 1.5 0  1.8265892939935 0.6051726401583923 0  0.5458598773451642 0.2962606377138959 0  0 0.9375 0  1.349377516922966 0.6209336375388498 0  1.079656249611334 0.612728400373996 0  0.7151087041654347 0.6989529576230681 0  2.0625 1.5 0  1.59375 1.288981971791887 0  2.085107439753329 0.2191742438537923 0  0.6402689932842839 0.4934943541428904 0  1.228474271256239 0.2064231070567615 0  1.3125 1.5 0  1.06968030723948 0.9647793670181679 0  0.2113350105157037 0.5332932754427466 0  0 1.3125 0  0.5051540211699285 0.7110632261327643 0  0.4775171365050886 1.316467280173536 0  1.967112413780365 1.020384154410382 0  0.8191736043349165 1.304781661824189 0  1.103455205015878 1.280328263155604 0  0.7649318329201844 1.023310716596371 0  0.2120544860962804 0.9823800432730223 0  1.359100570345391 0.9517705003379791 0  0.1711043107784345 1.21875 0  3 1.3125 0  2.8125 1.5 0  2.714178691455841 0.7554813872281284 0  2.217815962767571 1.313132398873298 0  2.020480176543968 1.307095379623413 0  2.29875620117699 1.013690599387144 0  0.3848285295772316 0.1937040883803935 0  0.9375 1.5 0  3 0.9375 0  2.4375 1.5 0  3 0.5625 0  0 0.1875 0  0.5625 1.5 0  2.835 0 0  1.386383673099448 1.305536509588035 0  1.773513842966063 1.0362399691084 0  2.179843036592861 0.4515211056338026 0  0.4134910794700652 0.9582824971065591 0  2.107214813096467 0.9125353945687058 0  1.916698009609654 0.2702971158297667 0  2.533006985360663 0.5155509623987015 0  2.838574938309606 0.4465309273225452 0  0.3016597101560133 1.338635596991575 0  1.641573393474498 0.7066136805426366 0  2.855238878880983 0.65625 0  1.398074618385877 0.1459865472102536 0  1.756539173374812 1.342993235461221 0  2.434593137832078 0.2067018044975929 0  1.434366740555482 0.4743139981449843 0  1.440742946818836 1.142108619191562 0  0.549043549720087 1.055391704395 0  2.571565919072277 1.32487216700893 0  2.535776521770127 1.159155922815097 0  2.652193336606067 1.04269083214613 0  0.660031172970541 1.35825582857438 0  2.607645482283307 0.8780318994093907 0  1.09590027081365 1.121554905778777 0  0.1474979543625655 0.8283466240195498 0  1.056776372361757 0.7739494406659941 0  0.3647560414155882 0.6427945145874604 0  1.699724067482516 1.17405657891935 0  0.913786173488833 0.9822051271795349 0  0.9283491691592597 0.66876089182342 0  0.7498959802087029 0.8498501951910959 0  0.3951228082283652 0.3465404522808934 0  1.23887612906836 1.360760366473919 0  0.1206420558503055 0.65625 0  1.735537276557186 0.4760109437618505 0  1.799297742536812 0.1791526413061006 0  1.970987958006469 0.6541756362249113 0  1.080810552147559 0.461742062484039 0  2.268149337929528 0.6688757993926466 0  2.413602460817152 0.8574959373397593 0  2.833998248858927 1.096635576389 0  2.71875 1.378451438260757 0  2.001906612723158 1.162230131308666 0  2.859452984352005 0.8083820929207302 0  2.688478120768856 0.4086214703657035 0  1.214106348747711 0.9519545202622776 0  2.850368184690094 1.307066142740315 0  1.864893983840636 0.9141560734025058 0  1.60661446108863 0.2395589708587393 0  1.61163060570479 0.3901968276506504 0  2.771867619212225 0.1335769833684914 0  0.7969119039620236 1.163109784140262 0  0.9599416701963486 1.276596315583475 0  2.103624150445193 0.7698297553089299 0  2.279721363034605 1.185280797873663 0  2.34375 1.392122382816539 0  0.1382307077648764 1.361769292235123 0  0.1426478344893104 0.2175212356047023 0  2.406413880432258 1.104106228251116 0  2.414971181397263 0.4111042519521358 0  2.637277274673136 0.2192348292007474 0  1.353600469573883 0.7646239317376279 0  1.494012125944227 0.651091825511382 0  1.590274899157226 0.9102986199774393 0  1.028633500752755 1.396325660524358 0  1.829615743479497 0.7518128394998403 0  1.861059000344659 0.3963812297683985 0  0.510900777690535 1.185277566959035 0  1.213080286311768 0.6640546084318578 0  0.79 0 0  0.8167897395818556 0.1376517357725223 0  0.9319739747594649 0.2144569310211157 0  1.889188139713804 1.330032757791382 0  0.655714683266079 0.2049689967103183 0  2.09162028105542 0 0  0.1359367774292784 0.4137345801986589 0  0.4380798275211911 0.8267965724704243 0  2.40400705830434 0.6721965963037969 0  0.3027633520173528 0.4394586980387968 0  0.8782788855287165 0.379708545377904 0  0.7595213470930909 0.4371189613680841 0  1.317967779309324 0.3170637160852436 0  0.6053759621699666 0.6225641226781395 0  0.6530309552265516 0.3661735489900947 0  2.594089294631991 0.631328821944253 0  0 1.03125 0  0.1304283746114646 1.089970844689444 0  0.4071107582724932 0 0  1.469526282978338 1.017083854458662 0  1.088959023533499 0.2104112015424126 0  1.161808378403757 0.3165749773273478 0  2.172966779463329 0.3188379172988492 0  2.216343768168092 0.1920401700474863 0  3 0.09375 0  1.905024675365066 0.5108806275986008 0  1.702014103004408 0.5963171944847371 0  0.2428042557945101 0.6514309613450368 0  3 1.40625 0  0.262372466757009 0.191725613649506 0  2.116791485436391 1.387145016777417 0  1.96875 1.5 0  2.885528053432104 0.3345800153572822 0  2.875601419873791 0.2042517854891826 0  2.298911783255236 0.4400662366556407 0  2.459247322083259 1.363881377923602 0  0.9735587139454543 0.5585353431007029 0  1.176315140569268 0.5379697839544898 0  2.0296370010214 0.5459700999805513 0  0.4987416453488727 0.4060939323248423 0  0.5397511702990104 0.1771676763212877 0  3 1.21875 0  2.238710633113112 0.5542203056099733 0  1.19831014052771 0 0  1.583962270593198 1.173633921912192 0  1.650563144166832 1.390075718520202 0  1.496025571730155 1.371899864460592 0  3 1.03125 0  2.887481932992674 0.9890041589451042 0  0.247836885460272 1.094286258989912 0  0.4719220056590702 0.6009044603312741 0  1.97565550452845 0.1615660574331665 0  2.131135530378305 0.1108580974478677 0  1.318642333542132 0.5051755928544708 0  1.217460132329928 1.242599824876711 0  1.511891312109549 0.1714963794002952 0  2.174601400318987 1.01685942781215 0  0.9082882406313817 1.384236564302014 0  0.6140422604397168 0.7728109899968187 0  0.8289359680247524 0.7347587321432018 0  0.741509926624258 0.5729763888559004 0  2.058356323822746 0.3313153147701495 0  0.4534336320756143 0.1034622594748756 0  1.40625 1.5 0  1.689084537897351 0.9628079283127213 0  1.156270839633873 0.1228556218721798 0  1.29033806179015 0.1118395069726669 0  1.460859151915469 0.9057320169622244 0  2.326558662668462 0.1831424028173474 0  0.9693052477371982 0.4460054238200853 0  0.6625304018229865 1.076650755704414 0  1.41493042158313 0 0  0.4485426513928407 1.096421738127594 0  0.2454589766548061 0.8778352103982039 0  0.1115239912906509 0.9339683416032414 0  1.134782462834443 0.8782884736059876 0  0.9999448991609674 1.04695529392896 0  0.9835215815673453 0.9000292002687431 0  2.53125 1.5 0  0.3175564878698739 1.010319294269645 0  1.971944763694389 0.9134401013848152 0  2.06
[...]
<PointData  Scalars="f_66"> 
<DataArray  type="Float64"  Name="f_66"  format="ascii">1.1371665077097139e+01  -2.9845510751974309e+01  -2.7199703287320563e+01  -2.6816771544569889e+01  -2.5488430149513949e+01  -2.5061151572340354e+01  -2.6512604379596205e+01  -2.7877685241437423e+01  -2.9700629837052944e+01  -2.6194782936319491e+01  -2.5775600821286460e+01  -2.5919795563852180e+01  -2.5858119102296097e+01  -2.5579414635688494e+01  -2.5925692395081413e+01  -2.7052527658521168e+01  -2.5338696124680709e+01  -2.3822161703060093e+01  -2.2214641567662525e+01  -2.1777681458993271e+01  -2.3142137316063565e+01  -2.4207566628860747e+01  -2.4697939386645007e+01  -2.3681589484637289e+01  -2.2016062383613932e+01  -2.0246957132460008e+01  -1.9412533497541844e+01  -2.0298906862641534e+01  -2.1223340549100797e+01  -2.2736789152243873e+01  -2.0622119668067519e+01  -1.8502580383502842e+01  -1.8077797775765529e+01  -1.8574619366717229e+01  -1.7444259032382618e+01  -1.7128917288178968e+01  -1.5554780082436000e+01  -1.4805430419578375e+01  -1.5486971820626136e+01  -1.6452078840019642e+01  -1.8080970822052926e+01  -1.3975589921073523e+01  -1.3656160205601008e+01  -1.2063558781076781e+01  -1.1322537498737230e+01  -1.1581131039818246e+01  -1.2832012851645494e+01  0.0000000000000000e+00  0.0000000000000000e+00  -9.7163041000320121e+00  1.4961003592660669e+01  -1.9503073056571992e+01  1.0269501721842328e+01  1.2085357360541890e+01  0.0000000000000000e+00  -4.3481313176375584e+00  -2.0146024319593669e+00  -4.0204189227334757e+00  2.1365204189729350e+00  -5.5007452669295178e+00  -1.2622199203937690e+01  -1.4797285726674174e+01  1.0742102122284114e+01  2.6372196834228345e-01  1.3981217727097796e+01  2.7792524400987664e+00  1.2580916228020165e+01  -9.4456500568594493e+00  2.9223805835561829e+00  0.0000000000000000e+00  0.0000000000000000e+00  1.0858577809616820e+01  -1.0039583391267948e+01  5.2739519525100285e+00  -1.3612298228634195e+01  -2.7117936078356273e+00  3.8134563899690241e+00  1.6409031383134465e+00  -7.6929334007438959e+00  -4.8288599161537258e+00  3.5199119163600239e+00  -9.5231016909687483e-01  7.2889710784233710e+00  7.6927637673232452e-01  4.1599666455145217e+00  6.6215894167953246e+00  -7.4530773092660487e+00  -1.9225374859940683e+01  -3.6549662299896872e+00  -1.3918563969235892e+01  -1.5634382105823864e+01  9.3191142314572595e+00  -1.4679700386004971e+01  -1.5790192746370946e+00  -1.9860772180728659e+01  0.0000000000000000e+00  -4.8249060733376981e+00  -5.1774502428927089e+00  -1.5473335966023098e+00  -1.6913845803330574e+01  -1.0255654517317129e+01  -2.2967672537919182e+01  1.2793057482492806e+01  -6.9440199249754420e+00  -1.9526905791661736e+01  -4.7272925935848527e+00  -8.4230525735608719e+00  -9.5889980396372554e+00  -8.6821953315410134e+00  1.4945409150634360e+01  8.3356543038310598e+00  -1.4069661203078899e+01  -1.4144319752119076e+01  -1.9068199658542945e+01  1.2100615423759248e+01  -9.2113357236772475e-01  -1.4615051429595061e+01  5.2206095992564645e+00  -9.0662490420191197e+00  6.2149177080622273e+00  2.6314543107444024e+00  6.8347762013381734e+00  6.9838917541551382e+00  -3.6562959992605965e-01  -2.9752564665695918e+00  -3.8658615944417962e-01  3.0421067687519265e+00  0.0000000000000000e+00  6.7049384012522211e+00  -7.9856686501095986e-01  9.0214174169733958e+00  9.1504053118123956e+00  2.6941092902901280e+00  -2.2685901526626427e+01  1.3168732111438160e+01  0.0000000000000000e+00  1.3591080516284677e+01  0.0000000000000000e+00  -2.4085804017515674e+01  1.2179597419423779e+01  -6.6937536033751739e+00  8.2998539588381863e+00  2.6581537711108654e+00  -8.4316176579923088e+00  -3.0294205262094223e+00  5.4071508351473241e-01  -1.4050995456384770e+01  -4.7210108083028786e+00  -2.3124911100785943e+00  6.4364134839374838e+00  -5.3282395166421361e+00  -9.0055445250814836e-01  -1.9909005508131223e+01  9.9320294732388543e+00  -1.1233781463009654e+01  -1.1649860715540228e+01  4.4408175422953651e+00  -1.7775193674410214e-01  7.4254284955115555e+00  4.6714398376471289e+00  2.3684860249387292e+00  7.7910956752278011e+00  4.1736249078416393e-01  3.0313715737452367e+00  -7.1808717801916462e+00  -5.6797787863815303e+00  -1.1269201904869600e+01  5.7528673195181534e+00  -9.5226503913797600e-01  -8.7222019595857656e+00  -4.7689188528613888e+00  -1.8740955761748534e+01  9.3996560929996900e+00  -1.1766552133165476e+01  -1.0294488888493472e+01  -1.6981819677519969e+01  -5.2656733804146807e+00  -1.3318449818434223e+01  -3.7311841785075965e+00  -3.6445790958270087e-02  1.7149716185766641e+00  6.8898898468402363e+00  5.8200190006208290e+00  -1.0151634149887920e-01  -4.5925739541288424e+00  -8.0519200782892220e-01  3.3817042628653988e+00  7.8539004553770539e-02  -1.6537524960110250e+01  -1.2900267728999422e+01  -7.0057734682816140e+00  3.2282922636081008e+00  6.5253952348112669e+00  -2.3772031365447024e+00  6.1164015515538486e+00  1.0500377831408459e+01  6.5739906423045271e+00  -2.2739594996842360e+01  4.2100397654148498e+00  -7.4537984323097426e+00  -8.1047449156994791e+00  -4.9305614425058444e+00  -7.1710038648074548e+00  -7.2128271616422601e-01  9.5771724276131600e+00  -3.6480541534620881e+00  -1.1498724888697611e+01  3.0053445296762606e+00  -7.8565199535572301e+00  -2.5071849385853110e+01  -2.2546303705122156e+01  -2.0082326950466339e+01  9.6829990897630775e+00  -2.1495205463610464e+01  -2.0461216463556063e+01  -1.7942488149431970e+01  -6.3208687012451108e+00  -3.0838629538395206e+00  -1.6686560556872340e+01  -1.6144316077512183e+01  -1.5146886528277820e+01  -1.5970868801483615e+01  -1.0984804937579694e+01  -1.7346167067476454e+01  -2.6802086414972321e+00  -2.2216321460173760e+00  -3.7676150328383268e-01  -2.6496658135426856e+01  1.4930157231575867e+00  -1.9429187879279340e+01  -1.6588614540102164e+01  -1.1234734605889457e+01  -1.3593316863879270e+01  0.0000000000000000e+00  -8.6943198585875141e+00  -7.6565426761131077e+00  -1.1463545213796511e+01  0.0000000000000000e+00  -2.3119830769587963e+01  1.1112050642339074e+01  1.2697719894002054e+01  -2.3021056050297730e+00  -3.4914850172405409e+00  -7.8303900632616346e+00  9.1791942674592448e+00  -1.1310880086867602e+01  -1.1082891704108434e+01  -7.3080171668087210e+00  -1.6870789849959170e+01  -2.2629624626210489e+01  0.0000000000000000e+00  -6.0400138606784077e+00  -2.5541904293625809e+01  5.5285101975024791e+00  1.0796399401523349e+01  1.0303855073325503e+01  0.0000000000000000e+00  7.3284136384272247e-01  1.3885828806194232e-02  -1.1985396467219774e+01  -1.6081504766274872e+01  -1.6278595389310777e+01  -1.1352286556907075e+01  6.3610866902944228e+00  -1.8797119720944671e+01  2.7427179248652727e+00  9.2141706697169141e+00  -7.1431805292607269e+00  -7.4080712908516917e+00  -1.1774395362215266e+01  -1.1762105450306196e+01  -2.4515310418236442e+01  1.2704079070208387e+01  7.6797339532383191e-01  -2.1415624025320014e+01  -2.1147107071841855e+01  -1.2023281427525814e+00  -1.2834273452263657e+01  -1.4131518726052859e+01  6.8548916244000790e-01  -2.3246760766707563e+01  5.9011284658849916e-01  -5.5938358566963871e+00  -4.5155212037677295e+00  -2.8583875283387732e+00  9.1465828632342672e-01  -2.7843769475962676e+00  1.0575677659154710e+01  -1.9638501444649770e+00  3.0528900541620463e-01  3.8665173005670108e+00  4.5621730109320167e+00  -1.5393856414504977e+01  9.6456609097168364e+00  8.0222059361448272e-01  -1.3912515911020773e+01  -2.1826533856762985e+01  6.9367152149288236e+00  2.6518201177092675e+00  7.2333094596051701e+00  -2.5149387752797092e+00  -1.1537884326773893e+00  7.9094909585999638e+00  3.9243546505220133e+00  5.6125879946359660e+00  -3.1857305303918602e+00  -1.0167150259767403e+01  4.5661102603944386e+00  7.4975268261741346e-01  -4.7372671624235405e+00  -1.3001949031331712e+01  -2.0295818644086245e+00  6.1701071074981080e+00  1.0369377679784678e+01  8.7976210765057257e+00  5.1223971849397429e+00  2.2660363043301555e+00  9.7193345462209724e-01  0.0000000000000000e+00  4.9096013490287129e+00  -2.6410891396503764e+01  1.2271557657864682e+00  -2.6115843621316031e+00  -9.4494225574319461e+00  -2.3309772822749633e+00  -9.3871106352302327e+00  -3.5931260115838479e+00  9.6064873763730603e+00  8.4214466283185452e+00  -1.6361169937163005e+01  -5.5184779198424811e+00  -9.0005795083268065e+00  4.3845343663649690e+00  3.8804904934087019e+00  1.1185343548720608e+01  -1.3312267818882381e+01  -1.7575564017398960e+01  4.8014055436468510e+00  -5.2413285290405973e+00  -4.0947086312180945e+00  4.2996463743751683e+00  -8.7435864130345031e+00  3.5916056045495091e+00  7.9914130281283038e+00  7.6533069000223373e+00  2.5718748819738328e+00  2.4744936255814265e+00  1.1829144134288846e+01  -2.0355730583075722e+01  -1.3147377675676374e+01  -6.4244281374640462e+00  1.2473629571193898e+01  -1.4053916095435513e+01  -2.5718552456572947e+01  9.6366211777455977e+00  7.7380119381310069e+00  6.0279406129465507e-01  2.7321964328569512e+00  4.3568163952858132e+00  2.4800989878285788e+00  2.7538165455878953e-03  -1.8261696109780836e+00  -7.9521973346036323e-01  -2.6474486924980303e+00  -7.2632068999340991e+00  -2.0611428068402947e+01  -2.1017692340300371e+01  0.0000000000000000e+00  2.6191654131596565e-01  -9.7004512255203963e+00  -1.9747983570372764e+01  1.3637945374705505e+00  8.4923889196504092e+00  7.0441704746647256e+00  1.1221304269788646e+01  -1.7526089244066565e+01  -2.4750915545768645e+01  -4.1429402655219594e+00  5.4983859427955633e+00  1.3406363527592031e+00  -2.3178070776228815e+01  -1.5493555685454325e+00  1.1080189810600237e+01  1.3693020369535855e+01  1.0975129768881633e+01  1.4213490524205509e+01  -1.7112049836370275e+01  -1.2216941533764922e+01  -7.2401770782300563e+00  1.1885330603248885e+01  0.0000000000000000e+00  0.0000000000000000e+00  1.3189190862184253e+01  1.1882953514936862e+01  1.5297184212948302e+01  1.4364380520613651e+01  -9.5212441397770231e+00  -8.7079486416814067e+00  -6.8610719417751236e+00  -5.2098666413844352e+00  -1.5214813047073670e+00  -8.1856886158127340e-01  -6.7170930739033023e+00  3.4573440718630821e+00  4.6089135116571907e+00  1.6599366689167172e+00  7.0891826054263376e+00  9.2074856831661904e+00  -2.2167712514941367e+00  5.7201190134396396e-01  -1.0379488351967108e+01  5.9111669170975201e-01  -3.7353112747346833e+00  -6.5135858923670460e+00  -5.6556299998887152e+00  -6.3474274748674580e+00  -5.6841910192904663e+00  8.0623832096563692e+00  7.1983580361598811e+00  5.1858023417164745e+00  -2.6273021932334033e+00  -1.6216877094456301e+01  1.6446388518196717e+00  -7.7037525414739361e-01  -1.6816240698434983e+00  -3.4922616189843367e+00  -1.3080489449700423e+00  -1.4044820565593126e+01  -1.2086639717491273e+01  -1.3620216485527706e+01  -4.1401050355423035e+00  -2.1635775194450531e+01  -8.9707431223300880e+00  -6.7474512839038558e+00  -9.5735646583077862e+00  -7.3833503322526735e+00  -9.4475691236232819e+00  -1.7857910718512688e+01  1.7751865623517444e+00  3.0597418795039695e+00  -1.4925215424403392e+01  -9.0002356185476096e+00  -5.9468956575456016e+00  -6.9943617753762488e-01  -2.9519824449565046e-01  3.9061815115629979e+00  4.3078490519505097e+00  6.3284728604614502e+00  -1.3497967214121230e+01  -3.8578180639865089e+00  1.5126226670326233e+00  5.0690021074532163e+00  1.1919989566018055e+01  -1.0121382906453526e+01  1.3831181853583334e+00  2.2894144010685502e+00  5.5434136067904323e+00  3.5692669205924514e+00  -9.7709870503783236e+00  5.8732038980988266e+00  -1.8347561140135788e+01  -1.7808070625100260e+01  4.2123163384545022e+00  -1.0749389768217073e+01  -2.1724862477240887e+01  1.7188495966440398e+00  -1.3785697528420535e+00  -1.6118049983558887e+01  -1.5495187475878318e+01  -1.7159783555929946e+00  -6.4255801845396574e+00  -8.0706099724611420e+00  9.2011163875745683e-01  -1.7008233293781334e+01  3.2807896247286177e+00  -4.9809347857123969e+00  8.9304466996232481e+00  -1.3347783679604383e+01  -4.8663198264146548e+00  8.8015472672858159e+00  -1.1446060321947416e+01  -1.0916837906154571e+01  -1.2409916822788253e+01  -2.1165770737526977e+01  5.8782976534765599e+00  -2.0380541895239720e+01  -3.3353328205014936e+00  -1.9192227363307463e+01  -1.4505434374840368e+01  -1.2023321941183408e+01  1.0224147843833929e+01  -1.9245579382107817e+01  1.9813473867292603e-01  1.1515293479436638e+01  -2.2626490167979131e+01  2.4893342357221333e+00  -6.1935350107757969e-01  -3.6779985106297436e-01  2.9357854729889099e+00  8.6063127515579314e+00  1.4017493184141454e+00  7.7431803800774004e+00  -1.8751039787330395e+01  5.7328375847595119e+00  -7.0471955241606947e+00  8.0512464519682556e+00  1.1375787458570166e+01  1.2439951733693648e+00  4.4436727194915129e+00  -2.0367823807119798e+01  -2.4506413235921798e+00  -2.0555203553498345e+01  -3.0358438953841277e-01  7.6426948203612879e+00  5.5015660465307521e+00  -2.2655865795640395e+01  8.3886243653811388e+00  -5.2682165986090599e+00  -1.5587371668315015e+01  -2.4850090733476069e+00  -1.0285202958576287e+01  -9.8669658984160371e+00  -1.2957525306649789e+01  -1.6358684357552864e+01  -2.2717253657437830e+01  -5.4970130995798649e-01  -1.0834459543607032e+01  -4.4461796076580438e+00  -6.7835474286488617e+00  -4.8682696038528688e+00  -2.9103932791355778e+00  1.0179254000556387e+01  -5.1970760329605428e+00  -2.2643110076450403e+00  6.5841059073388370e+00  9.1418164845203833e+00  -1.8673563722007870e+01  -1.6784734517401418e+01  -3.6333329779496570e+00  -1.3579813197258389e+01  -1.3211533128894072e+01  -4.8428457102992146e+00  -4.8743909439871516e+00  2.9424273306857873e-01  -1.6791575361977561e+01  -1.1747029706363577e+01  -1.8718277326309931e+01  -1.7588273798721737e+01  -1.1383001033200237e+01  -1.3011123415092646e+01  -3.9642121413796310e+00  7.0322158759690856e+00  -2.2259496049509217e+01  -9.0147022799592058e+00  9.3823031348877217e-01  -4.5674581556957614e+00  -5.2983159292503927e+00  -1.1054158659402653e+01  -6.4500391750695085e-01  9.3416221898251994e-01  9.5728404853328488e+00  1.0026282105089470e+01  -1.6011848772763337e+01  1.2024643563275458e+01  -1.8529040026423207e+01  -1.5373201790815214e+01  -7.6260346733189461e+00  8.7429584475779478e+00  -5.7154575110666554e+00  -3.3315207669919236e+00  -1.8119851646613224e+01  -9.3524757018605964e-01  1.0814867632449154e+00  -2.2133778363477243e+00  -1.6756671286666722e+00  -9.3892594962874938e+00  -7.1963955029106828e+00  -1.8708794442790481e+01  -1.7542093461171244e+00  1.0252538875850858e+01  1.3270683503512046e+00  -1.9172130986144367e+01  -4.1334768364296552e+00  -1.8312981567350889e+01  -2.2434078209714854e+00  8.2609714007298791e+00  6.4757857345831784e+00  -1.8042561706023349e+01  -2.0990647741455266e+01  -1.9399450270368563e+00  1.9293503277494564e+00  -1.1728962008253966e+01  4.2433198274438464e+00  5.6264597253173694e+00  1.2181422594094371e+01  -9.8262538467244115e-02  -8.6270636044079296e+00  -6.7602051656649342e+00  -7.8163421067351413e+00  -1.4794590399024486e+01  -2.1435843363137920e+01  -2.3996673828387017e+01  -9.5206620025977884e+00  -1.5838077531504773e+01  1.4196065587602291e+00  -2.7514475671424905e+00  -4.6056177986639186e+00  -4.8039384189498220e+00  -1.0516507214802557e+00  -2.5814392360836305e+00  -3.5081110794684062e-01  2.9952917773382524e-02  -1.2150609412855017e+01  -2.2550780119097094e+01  1.1359114714829570e+01  -1.2222924351015186e+01  8.3513418204517329e+00  -2.4791712246223415e+01  -2.4132517089633627e+01  -5.5260451907968164e+00  6.6872214246163963e+00  -1.4211601444564371e+01  7.4287478403693941e+00  -6.7304257999958139e+00  -3.9624633857460734e+00  -3.6327929814211544e+00  4.7191027714817801e+00  6.6837068848604195e+00  6.6228902753305023e+00  -5.8405472992191774e+00  1.4638481510371308e+00  5.0279562945751861e+00  -8.1914959766873121e+00  -8.5054746900181877e-01  -8.8195705241390829e+00  -6.1581388313261183e+00  1.2002300534121881e+01  1.1717682283962469e+01  8.8891727247374153e+00  -2.3454585746648007e+01  -3.6903115632655767e+00  -2.4048352329159854e+01  2.0301487952758999e+00  3.0124106742732075e+00  -2.8590231627533544e+01  -2.6495121296310295e+01  -1.7767070329698115e+01  -1.5132018576757678e+01  -1.4765843953362415e+01  7.5963624931442508e+00  -1.7465039660296451e+01  6.1985678516149179e+00  -7.1556687961770935e+00  1.0655208282025541e+01  -1.6144101055465509e+01  -6.3595265372470973e+00  -6.4922163525561647e+00  2.8167699132347175e+00  -1.1125380576822405e+01  -2.4581956352404809e+01  4.8854071681510955e+00  -1.0481764878193124e+01  -9.3258450622761160e+00  4.6781043461736136e+00  -8.9898433310645043e+00  -8.9733184270182309e-01  -1.9617812922763502e+01  -2.1075351617528735e+01  1.1999882425187208e+01  -1.2711861219222997e+00  -1.4478299300327533e+00  -1.5786387076748284e+01  -1.7346064366944230e+01  -8.0511771786253252e+00  -3.6226730917360239e+00  2.3529530274814778e+00  2.9708242601117121e+00  -5.6017006935379898e-01  1.0850137137946335e+01  8.3675585616605854e+00  8.4793423433778248e+00  6.0642988336150809e+00  -1.0211464112429045e+01  4.9825850193258230e+00  -9.2975804731775091e-01  -1.2524735063844870e+00  -9.1256693753661389e-01  -1.3224448798871908e+01  -1.3558239792601769e+01  -1.2590737039708495e+01  -7.2468149694139150e+00  4.1133376627500429e+00  -2.5252107479504984e+00  -7.8935705877683553e+00  5.6174485758496120e+00  -3.6055408535770166e+00  -2.3101756807526579e+00  -1.5186210725527944e+01  1.2632146013493033e+00  4.8065916186469710e+00  3.3346411981663673e+00  -2.1839559005158109e+00  -1.3705472053483449e+01  -1.5261258246980807e+01  -1.4054954225017964e+01  -1.1641910936934122e+01  -1.5099450439346404e+01  1.3581010651082133e+00  1.0223772857029649e+01  -8.0761804083360715e+00  -1.3094311959680385e+00  4.6972143770577555e+00  -1.2981553400636701e+01  -1.4594632770493273e+01  -4.6062728491083513e+00  -7.1504729811361223e+00  -7.7546317523335331e+00  -9.6264818534678387e+00  2.2489871246824178e+00  -1.9178994571587783e+01  -1.7760234230565032e+01  -1.2273782619953680e+01  -1.0171215745282113e+01  1.0023292907673712e+01  9.2058084580126209e+00  -1.0107479666857911e+01  -1.1123064430946100e+01  8.5099827691968528e+00  8.4429371239606485e+00  1.0608071075778332e+01  -1.2282070048829443e+01  -1.5309470161170612e+01  -9.7744996370348112e+00  -1.1115642558872173e+01  -8.0173269752749334e+00  -1.5372494517696417e+01  -1.9562217418106648e+01  -1.2814931484712027e+01  -7.2457714023689004e+00  -1.6066580002959149e+01  9.9533275162648422e+00  -2.6293393797732731e+00  5.6298894355529923e+00  -3.4967122908552035e+00  -2.0730271680733654e+01  5.3402903493316618e+00  -2.4009351609775926e+01  3.3196182785975599e+00  -2.5034514262271149e+01  4.9709355933840458e+00  -1.3148606453921031e+01  -2.1008741700578284e+01  -8.6252062553744135e+00  -2.5682842035467033e+01  -1.0531527634698742e+01  -6.5190625018804687e+00  -7.3345785822107459e+00  9.6637823751080525e+00  4.6125519346947073e+00  -3.1228961292836801e+00  2.3624352464458984e+00  9.5285654535645126e-01  3.0412794598946733e+00  1.5425412059107102e+00  9.2223460400568200e+00  7.0577974549661295e+00  -1.6994513362716699e+01  -3.5451463443648923e-01  -2.8754929749440926e+01  3.3520007130337901e+00  -1.7277231403518577e+01  5.3520767252603774e+00  -2.4472210145945375e+01  -1.1176734562981321e+00  -8.6536505751967265e+00  -7.5546760264550716e-01  -6.6390355201002933e+00  -6.1450147782379494e+00  -4.9784383904778462e+00  5.8210959932105917e+00  8.6961051654749042e+00  1.0037712056513394e+01  1.3191856573990842e+01  9.8520290132863302e+00  2.7329497252589299e+00  -5.7106485037398587e+00  -8.0793038310140179e+00  -5.3055933752542890e+00  -9.4096171546136844e+00  -2.1396550355055798e+01  -2.9919175314260320e+00  1.8370680866725555e+00  -1.1728752477935236e+01  -1.1976239908675367e+01  1.6700345594920012e+00  4.0632622430903984e+00  2.5463965977691529e+00  -1.7381784165530526e+01  -2.1517263682582389e+01  3.6447122366907014e-01  1.1955203932216721e+01  -1.5072962774372558e+01  -3.8299806183318634e+00  -2.3170868586042683e+01  1.1385866030480551e+01  3.4652289229220092e+00  2.0627416347242575e+00  -4.5853836850455458e+00  -6.492786255377