<?xml version="1.0"?>
<VTKFile type="UnstructuredGrid"  version="0.1"  >
<UnstructuredGrid>
<Piece  NumberOfPoints="5089" NumberOfCells="9865">
<Points>
<DataArray  type="Float64"  NumberOfComponents="3"  format="ascii">0 1.5 0  0 0 0  0.1029058182573948 0 0  0.1029058182573948 0.02393156642875577 0  0.1251489251828899 0.06631226582407952 0  0.1645395112957465 0.09350162426854149 0  0.2120536680255323 0.0992708874098054 0  0.2568064746731156 0.08229838658936564 0  0.288545602565321 0.04647231720437685 0  0.3 0 0  0.51 0 0  0.5220577136594005 0.04499999999999999 0  0.555 0.07794228634059948 0  0.6 0.09 0  0.645 0.07794228634059946 0  0.6779422863405995 0.04499999999999999 0  0.6899999999999999 0 0  0.8924037639192813 0 0  0.8924037639192813 0.02287028598995353 0  0.9110081306187559 0.06465637775217206 0  0.9450000000000001 0.09526279441628825 0  0.9885018690405581 0.1093974084905101 0  1.033991869381244 0.1046162167924669 0  1.073604366699474 0.08174593080251337 0  1.100490000340686 0.04474103073833802 0  1.11 0 0  1.502905818257395 0 0  1.502905818257395 0.02393156642875577 0  1.52514892518289 0.06631226582407952 0  1.564539511295747 0.09350162426854149 0  1.612053668025532 0.0992708874098054 0  1.656806474673116 0.08229838658936564 0  1.688545602565321 0.04647231720437685 0  1.7 0 0  1.82324056211084 0 0  1.82324056211084 0.02253860454731437 0  1.847611141284377 0.06045996594834066 0  1.888614812938137 0.07918571535047463 0  1.933233201040151 0.07277055962836147 0  1.967300282626494 0.0432512653964478 0  1.98 0 0  2.202905818257395 0 0  2.202905818257395 0.02393156642875577 0  2.22514892518289 0.06631226582407952 0  2.264539511295746 0.09350162426854149 0  2.312053668025532 0.0992708874098054 0  2.356806474673115 0.08229838658936564 0  2.388545602565321 0.04647231720437685 0  2.4 0 0  2.51 0 0  2.522057713659401 0.04499999999999999 0  2.555 0.07794228634059948 0  2.6 0.09 0  2.645 0.07794228634059946 0  2.677942286340599 0.04499999999999999 0  2.69 0 0  3 0 0  3 1.5 0  0 0.75 0  1.5 1.5 0  0 0.375 0  0 0.1875 0  0.75 1.5 0  2.25 1.5 0  3 0.75 0  1.803364316093307 0.8194216192460635 0  0.7085714285714286 0.7914285714285714 0  2.396697907928333 0.698796196655595 0  1.26039230397729 0.6323879781298929 0  1.125 1.5 0  3 1.125 0  0.375 1.5 0  1.418284719659703 1.05567510076647 0  2.625 1.5 0  0 1.125 0  2.4375 1.120298797465005 0  0.4140309460188812 0.4815551607069073 0  0.9375 1.133540466589862 0  1.875 1.5 0  0.4143011358073044 1.085698864192695 0  2.042557228405723 0.4764057674039468 0  3 0.375 0  1.615235786026768 0.4839120951620492 0  0.9172436665953028 0.4786128535408891 0  2.136144598898015 0.9367443054342734 0  2.712089662802327 0.5625 0  1.752709466448716 1.168812671476193 0  2.696461986964791 0.9012929362807449 0  1.307422665144653 0.3094324321200764 0  2.0625 1.24476578117044 0  2.446405755792607 0.3860402512509704 0  0.3158723471199726 0.7836709721106835 0  1.018921994797561 0.831404696897531 0  1.521099871135537 0.7571953762650785 0  2.718190509848388 1.189592528269884 0  0.665307193508031 1.225469494285917 0  1.199897701782483 1.230481185797768 0  0.2233959957266646 1.276604004273335 0  0.6649397520368477 0.3607836886074089 0  0 0.5625 0  2.685543358160364 0.3192521589045413 0  1.775621962986754 0.2975552026784072 0  2.025654700292002 0.7195245521041802 0  0.1961827192748887 0.9897295638426992 0  1.25729921569077 0.8746334216075233 0  1.534142212444284 1.264044413891354 0  1.624439414641745 0.9597398592303362 0  2.117668421489377 0.2641528949307972 0  1.945094170902585 1.053880768096555 0  3 0.1875 0  0.6251639682912251 1.002291403912492 0  0.719601375969486 0.5727782913443102 0  0.2313942916225519 0.3335511938861402 0  0.4687668770508729 0.274248243200137 0  0.5143238740412669 0.6811446824633056 0  1.829350286632844 0.5059917594077202 0  1.082379929992235 0.3249418149194327 0  2.540679850598416 1.305492850437689 0  2.282283153018704 1.279796495628565 0  2.355666841619378 0.9154942188580675 0  0.2114722061938988 0.5448236655965607 0  3 1.3125 0  2.8125 1.5 0  2.263750685400308 0.5173381079832993 0  0.4343085727049624 1.296611441170993 0  1.6875 1.5 0  1.016037518489582 1.324553740130353 0  0.846292314151325 0.9469220663180872 0  1.122827752751251 1.035495517001457 0  1.3125 1.5 0  1.306452909128697 0 0  0.8906638629565067 0.6773217378320744 0  1.517175933126145 0.2981487507037606 0  0.7996957920902151 0.2224603600775558 0  1.446370464174038 0.5785990786868803 0  1.689965192988266 0.6625083927402473 0  0.4864273298880485 0.870473805626289 0  3 0.9375 0  2.831315819563651 1.036097903808422 0  1.106384347284952 0.5163011422226527 0  0.5625 1.5 0  0.9375 1.5 0  0.1875 1.5 0  2.0625 1.5 0  3 0.5625 0  0 0.9375 0  0 1.3125 0  2.4375 1.5 0  2.196044825237544 1.113880351688974 0  2.210431846521007 0.695834380790271 0  0.8262236946704767 1.326155809103077 0  2.523003751809735 0.8349453583788917 0  1.882533682486712 1.30904671408086 0  2.845 0 0  2.813607095438526 0.1837681344374856 0  2.298597604800397 0.280431891689246 0  1.972062138207083 0.8834951655964545 0  1.943392101370151 0.2475417334111557 0  2.828663592588797 0.4267055109367558 0  2.803791026183859 0.7364868569598708 0  2.523250359922468 0.5585816735541729 0  2.602935827188279 1.053310414780935 0  1.692458045540587 1.328962813001376 0  1.232271555781778 0.154950218767993 0  1.36985844680238 1.21899526865025 0  1.785321775315372 1.004919979330962 0  2.534633602602767 0.2439507161942105 0  0.7651985499724481 1.092302611968735 0  2.637828969450683 0.71279922663893 0  1.100469689258933 0.6843495375675052 0  1.315800235513153 0.4755545830105288 0  1.405546076805209 0.1782543944119986 0  2.826282129872177 1.326282129872177 0  0.575884497984488 0.4967904868667201 0  0.1516233666565383 0.826056857120972 0  0.3483704262380678 0.6272257636119053 0  1.568331672486121 1.108640197801574 0  1.475101554186818 0.9082985267599337 0  1.868470483419324 0.6670273102604994 0  0.3467545185571825 0.9433646607171683 0  2.15625 1.373787484318285 0  1.41742615593433 1.367603819494743 0  2.854904919456998 0.8828609574219635 0  0.9476741986655126 0.255395459587152 0  1.267450600339273 1.091056105706913 0  0.114311143675241 0.65625 0  0.65625 1.37859278398136 0  2.170651243108527 0.4023187025489676 0  1.21875 1.380886352874642 0  0.3798992233573569 0.1593768045411093 0  0.9831420651531181 0.9956358347774316 0  1.456186685150796 0.4319140716985383 0  2.586721317152155 0.4269308613840649 0  2.863979293145301 1.178604739864835 0  1.658646098314701 0.8045749301224775 0  1.383553643956373 0.7098158224076794 0  0.154006438477797 1.138458423126247 0  2.856044831401163 0.5977865618779903 0  0.553876003596687 1.130313370813194 0  2.680231675041409 1.360526450748891 0  2.486056782242186 0.9722817331473952 0  1.891212003911469 0.3789027676568836 0  0.8138227412155181 0.37102502168449 0  1.064674644221452 1.192903489156071 0  0.6045358160041144 0.2320910326486189 0  1.194008126159845 0.4081242368041457 0  2.138311355076408 0.5770795769918613 0  0.134142636330111 0.2313017261983794 0  0.8460209454012837 0.8084258449188535 0  0.1293517554287885 0.4305045409359897 0  0.3205820557512212 1.373790064297892 0  0.2928933613730453 1.155196229839076 0  2.404969940572298 1.358123451328196 0  0.9933877375830629 0.5899302104012978 0  2.090287791367255 0.1211621925433303 0  2.904889173308855 0.28125 0  0.1246766077328953 1.375323392267105 0  2.302041695038792 0.7931069109810627 0  2.389228836127323 0.5648368411465005 0  1.886839219693261 1.174850198523801 0  1.96875 1.5 0  2.005259577028834 1.368575570359887 0  2.58746882374347 1.183267841227943 0  1.646515580921743 0.3486369169127919 0  1.980147904783248 0.5942137934419368 0  2.07740167257538 1.055304717195479 0  1.57300338334685 0.6065157750282059 0  1.59375 1.5 0  1.679678032322464 0.2100937046526968 0  2.252673654577562 0.9960348417811178 0  2.17832845930892 0.8178435559778986 0  1.78125 1.5 0  2.021596890434516 0.349571947542988 0  1.79926971381977 0.1752587163176004 0  0.503878860142697 0.3943984894172995 0  1.146622573165596 0.8060813049917908 0  3 1.40625 0  2.649807995179342 0.2020005420916801 0  0.3438742656237004 0.2790576170649142 0  1.546875 1.386334759531577 0  3 0.09375 0  1.320989371181643 0.9800954309611291 0  1.270074893254929 0.7536540780084714 0  2.70770359261854 0.4387759707667409 0  0.5606072232931772 1.296106034499297 0  0.7858104720553775 1.211812834033452 0  2.317237622700128 1.09958886094401 0  2.518665098961854 0.68166123334458 0  1.747777558052355 0.4158756118164814 0  1.683029275145126 1.069756268641544 0  0.46875 1.5 0  2.407758410849746 0.2048845882413086 0  2.396684507181482 1.235853070423643 0  1.919569286509587 0.7755948020085885 0  2.290752654053557 0.4002939182457882 0  0.2367853577638227 0.6856443876677092 0  1.644821718344275 1.219632237269969 0  0 1.03125 0  0.5821665354391095 0.7878606619613046 0  0.6422016866915001 0.674771619551397 0  0.2917070890414653 0.4458139506278615 0  0.7912018819596407 0 0  0.1045102716700244 1.249819735557644 0  1.151091219660612 0.9224858968529193 0  2.719174284445647 1.071883664029489 0  0.7216906855953001 0.918545393630683 0  0.2528020696803429 0.8787006417214202 0  1.726437981314609 0.9055659975386789 0  1.466273966174817 1.158744006060248 0  0.500278661176367 0.9948136517426003 0  1.114706325735654 0.2023659607018325 0  1.193213601931895 0.2926984867334158 0  0.9725372994821596 0.3724679154862157 0  2.214714190066689 0.1991474088029779 0  2.411776451427861 0.8179674328277735 0  1.997105232295531 1.153439169094244 0  0.497834479014996 1.390464488336983 0  0.4532232073331143 0.5868543641678674 0  0.4094710929462204 0.7215160819073434 0  0.2730945637736263 0.1927345247561336 0  2.091452909128697 0 0  1.88727127931541 0.9574017932976476 0  0.7331675361580886 0.4562359341911597 0  0.808798696301996 0.1107204599928528 0  2.794056136375906 0.2935548935723623 0  2.172174128810919 1.263645408055929 0  2.266351953173893 1.389929090293708 0  0.9205129738298803 1.252177379624563 0  2.58760749
[...]
<PointData  Scalars="f_66"> 
<DataArray  type="Float64"  Name="f_66"  format="ascii">1.1188347740130981e+01  -3.0322821545558419e+01  -2.8478715087367238e+01  -2.7948459132211617e+01  -2.6118005192652127e+01  -2.5026505688840281e+01  -2.5460232253912928e+01  -2.6855777271416695e+01  -2.8082610145173469e+01  -2.9698556855628468e+01  -2.5991714220684155e+01  -2.5681142303007725e+01  -2.5848194491193244e+01  -2.5986446509716135e+01  -2.5597267667994227e+01  -2.5220899404550863e+01  -2.5505600992378955e+01  -2.7152507089641947e+01  -2.6258124599681814e+01  -2.5041791822323919e+01  -2.3842017495846196e+01  -2.2289704039429346e+01  -2.1547078101098581e+01  -2.2255502402333875e+01  -2.3961372534073892e+01  -2.5590067701483594e+01  -2.4953271769312433e+01  -2.3998134320424949e+01  -2.2522487233674013e+01  -2.0844657836667640e+01  -1.9540640284478446e+01  -1.9531995061977437e+01  -2.1068831060093661e+01  -2.2388235472340678e+01  -2.3581322407529971e+01  -2.2558402954954708e+01  -2.0708291076798893e+01  -1.8742678922190695e+01  -1.7870568510163412e+01  -1.8535231815039495e+01  -1.9474645886735512e+01  -1.8765858124659363e+01  -1.8204147351968214e+01  -1.6387323174265834e+01  -1.4800634501574919e+01  -1.4789631572788965e+01  -1.5622539847812796e+01  -1.6449351540694032e+01  -1.8179436436788578e+01  -1.5559959791212513e+01  -1.4050195749948633e+01  -1.1951068533382069e+01  -1.0903035852573462e+01  -1.0846017445729606e+01  -1.0939036913912078e+01  -1.2501949095868067e+01  0.0000000000000000e+00  0.0000000000000000e+00  -9.9412532695554230e+00  1.4597760741238041e+01  -1.9724140837597695e+01  -2.4380466368677641e+01  1.0006673713559028e+01  1.1811298189932394e+01  0.0000000000000000e+00  -2.4239503976196035e+00  -6.5937333973634784e+00  -2.8278316761840001e+00  -8.6940537058006733e+00  1.2384166126705889e+01  0.0000000000000000e+00  1.0419848786497806e+01  2.0716018558641971e+00  1.0580054107049524e+01  8.8024718956052725e-02  4.2015952454771925e+00  -1.5470477467671287e+01  2.6750766816956544e+00  1.3719197243459261e+01  2.9661513205642941e-02  -8.9143437157662895e+00  0.0000000000000000e+00  -1.0882002494942082e+01  -1.3747449781035632e+01  8.7973696410608282e-01  -2.7092623514982277e+00  5.4976119647880628e+00  4.8108370319606109e-01  -1.6460450465493821e+01  7.4688583883300232e+00  -7.7177255391354365e+00  -8.0226980086629265e+00  -4.6021285207795763e+00  -4.7754076741730742e+00  3.5630369148598469e+00  4.2342951387560275e+00  5.7950112765748756e+00  4.4682282764196435e+00  -1.7705400808448374e+01  -1.4900861808577014e+01  -5.7880308776934504e+00  -1.4489234934943990e+01  -3.8708723605677213e+00  -3.0193442366695331e+00  -2.7889263087306020e+00  7.4025447103682485e+00  3.1446628873202820e-01  -1.3008682318070067e+01  3.1273963525584434e+00  0.0000000000000000e+00  -1.5104500756590902e+00  -1.2093012597862925e+01  -1.9848678455045270e+01  -2.0620183529290479e+01  -1.0023424994338869e+01  -9.3789261445734731e+00  -1.6909974532509604e+01  7.0559144733251289e+00  7.8805898449711567e+00  7.1119007064403739e-01  -1.4542020740513566e+01  0.0000000000000000e+00  6.4077779210412693e+00  -6.7552481725034204e+00  5.4259057174561143e+00  1.2470197655362924e+01  7.6248859294511551e+00  -2.2547676761365620e+00  7.6394321999753501e-01  1.1731579395671220e+01  -2.3434793794088982e+01  -8.8662219495694465e+00  -1.5826339611594365e+01  -2.0703460670679636e+01  -9.3152321687971025e+00  -6.3937453169756804e+00  -5.2707671224557826e+00  0.0000000000000000e+00  1.1679381399603330e+00  -1.2105221369127243e+01  1.1867918014497269e+01  1.2875982029271155e+01  9.0473353745557947e+00  1.4593553893715793e+01  0.0000000000000000e+00  -4.9333203803678405e+00  5.0651283754793486e+00  1.3285096516954376e+01  4.5262255419859612e+00  -3.6433723192987957e+00  7.1884826662014065e+00  -3.8912499826879693e-01  8.9536311141095428e+00  -6.0330440859796131e+00  -5.0672692011252956e+00  -1.1160412510017080e+01  -5.5119655144210489e-01  -1.4597161084905174e+01  -2.5617890807091781e+00  -7.3404638823281176e-01  -4.2673677229524687e+00  2.5198231102245812e+00  9.2228266239412768e+00  -2.0664424231822579e+01  5.9270048683170709e+00  1.7440906588803220e+00  -9.2509094694553884e+00  1.1575312187551023e+00  -1.6067514796411311e+00  -7.9742381626665333e+00  -1.2325712885621558e+01  -1.9376394004422409e+01  3.8121501121525476e+00  -1.4531705128302043e+01  -7.4325753030172770e+00  -1.1951157214960540e+01  3.7122716608400173e+00  -1.3190717151058462e+00  -5.6015540228466092e+00  -3.8077901169553381e+00  1.0377332247202615e+01  9.6784382533304978e+00  1.8871198274680914e-01  -1.9197882787299012e+01  2.5342399370318578e+00  -1.2005919591572612e+01  8.0973531691860003e+00  -9.6657238638977159e+00  9.6671443548860161e+00  -2.3858060290550693e+01  -6.3011395368436818e-01  -1.2826735425338185e+01  -5.5812063058794852e+00  1.8509017920863684e+00  -3.2118870604582077e+00  -6.3795710880857319e+00  7.5812532285552514e-01  -1.2284346435146045e+00  1.5347144212462740e+00  6.7655864072433261e+00  1.6265829000455712e+00  -1.1935273747093104e+01  -1.6861376637274486e+01  4.4998843222552649e+00  -2.1307163216109053e+01  -1.4447623626549349e+01  -6.3033908207716509e+00  -2.2666884150340088e+01  -5.7274340166189122e+00  -1.7769490157576424e+01  7.2232542838682905e+00  1.5078010224055420e+00  9.1646920190101522e+00  -1.0689586783425542e+01  -1.6610860319944880e+01  -2.1586841810876063e+00  6.7268159119781394e+00  -1.5363607885745216e+00  -5.0937628138046200e+00  5.8078426487069308e+00  1.2354076245807811e+01  1.0351456901550579e+01  4.5372550259213940e+00  -1.3949419345151416e+01  -6.7152818409583510e+00  3.2894401768202601e+00  -8.1563686314403405e+00  1.2893516691386276e+01  -1.7059575787908699e+01  2.1501498459712125e+00  -1.3997247833996238e+00  1.4853099925792566e+01  -1.1794206397818705e+01  -1.7377399599827214e+01  -1.7408405274223632e+01  -4.8191851281337907e+00  0.0000000000000000e+00  -8.1728566000284619e+00  -2.0890109799937370e+01  1.0492815211400933e+01  0.0000000000000000e+00  -2.8803930171928147e-02  -5.6998481142476320e+00  -4.0291509615604717e+00  5.7532300769626064e+00  4.2118720972427752e+00  4.1045230826379360e+00  -2.5413507921926817e+00  -1.1855076960202787e+01  3.0375562438715589e+00  9.4284401582173647e+00  -1.1723283419502069e+01  6.5601337196230576e+00  -3.0343882899300438e+00  -8.8169514431812654e+00  -1.0816441368077482e+01  6.5247731669255158e+00  -2.4159711574667342e+00  -7.0837942062317536e+00  -9.7663866726286344e+00  -1.6797254859808206e+01  -2.5349688339845560e+01  3.5526937355520265e+00  -1.9397366683327586e+00  2.1673062791122724e+00  -3.3429191676084233e+00  -5.7523002471485087e+00  -6.7882747654446640e-01  4.6882384223828364e+00  -2.0560724408035114e+00  -1.9759053760730545e+01  -1.7302460860548116e+01  -1.6179282662629294e+01  -1.3604748534661892e+01  -8.4887508117192456e-01  5.3990477557534335e+00  7.8887219385270448e+00  -1.2638972240727409e+01  -9.3271109849759082e+00  -2.3316426508224204e+01  -2.0882124699420846e+01  8.8107264613822134e-01  -1.5005852405439322e+01  -2.3466472040236091e+01  -4.2583428041995033e+00  7.7808951208446580e+00  1.0308032685050421e+01  5.5959260875534440e+00  8.6173898115314462e-01  -4.3171868350061731e+00  8.2325845549810346e+00  1.2283093667613088e+00  -3.4071103659676858e+00  9.4926540077631358e+00  -1.1757438543854231e+01  -9.1253867435871854e+00  -4.2698253961843582e+00  0.0000000000000000e+00  -1.2259788182633611e+00  -1.0574000446735157e+00  1.0839079176318046e+01  -9.0720504366579533e+00  -9.4863369534196185e+00  1.1696841161334439e+00  -2.3019489872904089e+01  -1.8171755464975490e+01  -1.1382777095917838e+01  -1.5187699102497943e+01  2.7421509679505052e+00  -2.2368692973652372e+01  2.5038815164830002e+00  -2.0127785744871938e+00  -2.6037105371845264e+01  7.7255863681173693e+00  -1.8597329178239139e+01  -1.6651304882373651e+01  -2.6957494824360928e+01  -8.0455213435157820e+00  1.8163205170856873e+00  3.3367089649076385e+00  4.2206845513655651e+00  0.0000000000000000e+00  -4.6842988447948469e-01  -1.3274835777326761e+01  2.3456972236164442e-01  -3.7499167870161805e+00  -3.0200611045544328e+00  -7.4041612602948721e+00  1.0850270080409040e+01  9.7176312374901883e+00  1.2046087031887783e+01  9.0935638747780470e+00  1.5812875726009110e-01  3.5465075489873286e+00  -2.3450102598869908e+01  -2.1430087029442870e+01  1.3303782556455458e+01  -3.4324652232781565e+00  1.5513586599489829e-01  1.2494605503610006e+00  5.6159809550527031e+00  -2.0424531258590108e+01  -7.8958129198408686e+00  3.6298977886291048e+00  5.4880380149180557e+00  -4.3088161339521419e-01  -1.1944945289951693e-01  -1.5715962959827834e+00  -4.0828571668075769e-01  -1.2686374698500547e+01  -1.4536253515891683e+01  7.6977630663341037e+00  4.4679220682701204e-01  4.6725295724353701e+00  -9.5491682785671870e+00  -1.1930554954220113e+01  -1.6273396151116621e+01  -8.7419332839595185e+00  -4.2677717064189187e+00  -7.0983525059220129e+00  -5.8489005139504240e+00  -1.0371713607729003e+01  -1.0466212020251069e+00  7.5338698660658752e+00  -2.1554996065558960e+01  -1.9760757425460760e+01  -1.4540515089119998e+01  1.0512403902549895e+01  6.2824339864906014e+00  -2.8829986884908205e+00  -6.9975474674576628e+00  -6.0257690297860735e+00  2.2582900308367839e+00  -1.7352720473937421e+01  7.9833767346935156e+00  1.1228260005797321e+01  -1.8961942185549592e+01  0.0000000000000000e+00  0.0000000000000000e+00  9.0570798438854649e-01  7.5843933460406943e-01  -7.0752856790090330e+00  -1.4436199267593944e+01  5.3959921162081708e+00  8.6596727218421670e+00  6.3817583423025352e+00  -3.9680072175352743e+00  -5.9217404814192198e+00  1.9362036022520339e+00  -7.4379076947842853e+00  -9.8599497959991789e-01  0.0000000000000000e+00  -2.2097542771605426e+01  9.4674219806937128e+00  1.1584836931450337e+01  -1.2430326127153020e+01  1.2367310620639092e+01  1.3919556013443263e+01  -2.6856180729509948e+01  1.3819996976571568e+01  0.0000000000000000e+00  2.5792199091983505e+00  7.6145143587217197e+00  1.0234224849342281e+01  1.1546308357160523e+01  5.8723411768889253e+00  -6.2460414741015438e+00  -5.8797248262883466e+00  -3.1533680428711448e+00  -1.4132380700545724e+01  -9.8144448997627336e+00  2.6956901325232656e+00  -7.7785536170830021e+00  -1.6160891219791978e+01  8.1126423971499815e+00  -6.7553580444949981e+00  -1.2170682584223314e+00  -2.4739329427607217e+01  -3.5773625550630062e-01  -1.2885382173564285e+01  -1.1707955968471637e+01  -5.4843745325428577e+00  1.0360040881008551e+01  -4.5750431449794586e+00  1.1047126260099009e+01  -1.3016145411869533e+00  2.2611495408767417e+00  -1.0025499186518831e+00  -1.2643016408332921e+00  -2.6793302784422939e+00  3.6844389074693149e+00  1.4244970335421423e+00  -2.1672637713627019e+01  -1.2746067115528692e+01  7.4700150821764435e+00  -7.7730792967950277e+00  2.5799412095706877e+00  -1.6733609629444096e+01  -1.7619933261948407e+01  -5.2692946613891873e+00  -2.0184989937842939e+01  4.7522514353101570e+00  -1.4074987812504915e+01  -1.3681979744730768e+01  -1.8897229668966187e+01  4.3128323387023633e+00  -2.1728079470451245e+01  -7.5127257758192991e+00  -3.8053703724489703e+00  -2.4747570995464784e+01  -9.7844216117156169e+00  -1.5811469423327200e+00  -1.0122855017226035e+01  3.2859650166027197e+00  3.1751347562984198e+00  -1.6681149547074003e+01  4.9087221421492638e-01  8.3746873581299486e+00  -6.2020149107687681e+00  -2.2014155093828891e+00  7.5420832351006313e+00  3.8950202696295526e+00  4.8605122261107372e+00  -1.9138516980989667e+01  -1.2517387404971902e+00  -5.1103769414070017e+00  -7.9650902348755297e+00  -8.4569826305601854e+00  -1.0652137258451269e+01  -5.6346168748705211e-02  -4.1500705727908338e+00  3.6370001622942718e+00  -8.3796185192803083e+00  -6.3739862384986532e+00  -1.2293969346371469e+00  -2.1675071812758162e+00  -1.3223028759450237e+00  -1.0062457814250283e+01  -8.7825919240683756e+00  3.5827714291649966e+00  1.1279548722748882e+00  9.4913400072250429e+00  -4.9807174540604049e-01  2.7742586233468001e+00  -2.6344625348270272e+00  -1.0408181248377391e+01  -1.1349827977556764e+01  -1.4428940664456107e+01  -1.8176644132422531e+01  -4.1415170660540550e+00  -9.8702016362719185e+00  -4.6486052045386881e+00  -4.2169532754887546e+00  -3.4310458796451644e+00  -5.9816690505909387e+00  -2.6722234454783855e+00  -1.7830676721394099e+01  1.4655297599778800e+00  -1.2979893606255462e+01  -1.5328619339845304e+01  -1.5023727009732388e+01  -3.6645474130146156e+00  -2.6143460474395265e+01  -3.5025430459436149e+00  7.1068397705757187e+00  -1.2732738108374560e+01  -9.9978738361956676e+00  -7.1651356490437337e+00  9.4305162552663280e+00  1.1655748147938809e+01  5.6737900208138834e+00  2.1407454258047829e+00  9.0164586149183226e+00  -2.2821716467292486e+01  -1.3707644781241852e+00  -4.6302838362268419e+00  9.9795050647033943e+00  -1.0193140058870581e+01  3.0395482159180454e-01  2.9433802731197813e+00  5.5124087847515630e+00  -3.1432067490798183e+00  -1.9055580336265119e+00  1.1992692943542298e+01  1.1544976741811082e+01  9.0869808871619977e+00  -4.9906002254886923e+00  -2.9896703341920254e+00  -8.6216035485820246e+00  1.1697718044585535e+01  5.6103961964037881e+00  2.8534784266254234e+00  -1.0718528655621332e+01  -5.5626547031015305e-01  1.3765400000575098e-01  -2.2168627790874265e-01  1.8994249172725006e+00  -5.8041905935343729e+00  4.8744750650214277e+00  2.3062549642556252e+00  1.0837065542701469e+01  1.5751279421842229e-01  1.5410516436381589e+00  -1.4789774148372903e+01  -1.5057792211221457e+01  -1.4697469055843346e+01  6.0926065671761265e+00  -2.3738580539333615e+01  -2.1872280977428009e+01  -1.8733088521224424e+01  -4.0652525528970018e-01  -1.5679672628306381e+01  -7.0361604763970851e+00  1.8492481714899411e+00  6.0938835716941604e+00  -1.9665169461776053e+01  -1.7726009071889486e+01  1.0725922826276243e+01  7.7032539042595678e+00  8.9649594139976845e+00  9.1211829264996709e+00  -7.1225159746328766e+00  1.0417119617619710e+00  8.6595465182876694e+00  -1.7791739489259310e+01  -1.8771605585303302e+01  -1.3221793745299348e+00  -1.1198581627520149e+01  -1.7978292808256686e+01  -9.6866550584185518e-01  -8.3789793488406854e+00  -1.2618907278135630e+01  -1.1308034702206657e+01  -1.3533842451958312e+01  -1.0980807712975976e+01  -1.3444155140490160e+01  7.0055403032603438e+00  8.8348855820971794e-02  -2.4455390696125086e+01  -2.7352874752847017e-01  8.9575066964298278e-01  -5.6258212853572500e+00  -5.1482134598157412e+00  -2.0855000276548399e+01  -1.9895230423416685e+00  -1.7663149362928593e+01  1.0719348320479813e+01  -3.6931501963847828e+00  -4.8775514252718537e+00  -2.6252444780380255e+00  -5.7538837386392858e+00  -7.7368222076203779e+00  -7.3755154328514614e+00  -1.4036505247598965e+00  1.0028933633301378e+00  -2.4976673766569224e+01  -2.2513206409518418e+01  -1.3436678401345091e+01  6.3453774876602589e+00  -1.7955590733972024e+01  -1.5778379162000443e+01  6.6556850642449676e+00  3.3249103741900559e+00  -1.9201918585007409e+01  -2.2180268878118799e+01  -1.5719091514984017e+01  -1.5386530346122322e+01  1.8344463570226039e+00  6.0648440392004899e-01  6.4508872212168535e+00  -2.0721132337318171e+01  -2.3215081484511064e+01  -1.9569343107525270e+01  2.5608000359662828e+00  9.6235406380250215e+00  -1.0820271879319296e+01  -1.3337414167340116e+00  -1.2915007110540982e+01  -1.8672223024570300e+01  -2.9722018675304143e+00  -1.3032638347604815e+01  -1.0934046232472202e+01  -7.3249302216296428e+00  1.2629294585195920e+01  -1.8282029432530422e+01  -1.6034114173337578e+01  -1.8837451433189909e+01  -3.1260465094044445e+00  5.4560638486748374e+00  3.3727590593006522e+00  4.9694325402188380e+00  1.2175116090061643e+01  1.0777121896692474e+00  -1.7383946599922833e+01  8.0652245914234850e+00  6.3306747333127458e+00  8.0995062381651604e+00  5.9903332619212968e+00  -9.9582375664357805e+00  -1.2872586133173700e+01  -1.5248104681160688e+01  -1.2953573155253494e+01  -1.4724369006916723e+01  -1.2513829735811022e+01  -1.3610886757383474e+01  -1.4386812514029041e+01  -1.7078498414738970e+01  -1.9077706428467684e+00  -1.7466783731438416e+00  -7.2120071800457293e+00  -6.2070053176870479e+00  1.8883590795142504e+00  4.1838551057647635e+00  -1.0090393443401879e+01  5.6307179991355962e+00  8.7687350161551851e+00  1.3727927672381786e+00  -2.5612738862364459e+00  -2.3346275241673755e+01  9.1820841292710593e+00  8.2895583096264467e+00  1.1162974058600636e+01  7.3574357836105611e+00  -2.3797505190344651e+01  -8.2583565863375501e+00  3.9169351193800859e+00  -2.0844988216181392e+01  5.5129847073994576e+00  -1.2095520952182811e+01  -2.1500547138419197e+00  -4.6683876900114445e+00  -5.0314128926115780e+00  -1.5787173484660389e+01  -3.6592848897239785e+00  7.3819683347237044e+00  4.3783170593273386e+00  -8.4316264308090556e+00  -7.4855284730889391e+00  -4.8937711648071458e+00  -3.9463600872487947e+00  -6.2447866129539520e+00  -4.4924847379710284e+00  8.1644083036224924e+00  -8.0064173945199482e+00  1.1697042344106373e+01  -1.8135043330357380e+01  -2.2501019363355086e+00  -3.0845303002615571e-01  -2.2532836272514580e+00  -1.3024756155261092e+00  -1.4817519979047759e+01  -1.0019068956910386e+00  -6.1105145545518820e+00  -8.0599469178856396e+00  -5.2682638913214301e+00  -7.9339507756822183e+00  -1.9277410850635096e+01  -1.0933405999993006e+01  -1.3495769866069338e+01  -1.1378768462000297e+01  -3.1304746746433865e+00  -7.5130522262658417e+00  2.6418680801123906e+00  1.9566608592383519e+00  3.9336404126594884e+00  8.8383897744277906e+00  -1.3235556727432852e+01  8.6475746348442861e+00  -3.6960712932845636e+00  9.4071656077756121e+00  8.5183834833413741e+00  3.6650057657161494e-01  -1.8352180425176780e+01  -2.0844213805228851e+01  4.3923991005024892e+00  5.7483447478271641e+00  1.5418055212115602e+00  3.2988103463257006e+00  -2.2227457562437230e+01  2.6675007984757659e+00  2.3833041611094332e+00  -3.3225168596815529e+00  -1.9128565174744196e+01  -6.3912717909434464e+00  2.9724632050342779e+00  -7.1163463970129515e+00  -8.3055497742195428e+00  1.4114358734560428e+00  1.0888671243027776e+01  -1.8500026547683703e+01  -1.6274916286090662e+01  -9.1977030344142396e-01  -8.9035666014759034e+00  -9.6086617309451441e+00  4.7989053524932581e+00  6.0515196526932735e+00  -3.0137742430573575e+00  -1.1689350109355770e+01  -1.6111027045044501e+01  -1.2940256561357874e+01  -1.2076154184647438e+01  -4.1070677559885267e+00  -1.9994861583352126e+01  -2.6999054994728972e+01  -8.9645227511241927e+00  -1.1301232474440033e+01  -4.9591371818556187e+00  -1.0462857450982861e+00  7.6801932733213496e+00  1.5062166362196889e+00  -1.5954355029713374e+01  -2.1139617424233791e+01  -9.2550471632312430e+00  -7.5070677281484075e+00  3.4670829580901414e+00  1.0420290062829572e+01  5.2099731330870638e+00  2.4725495117118625e+00  4.0693309951832539e+00  1.1461054694583222e+01  -2.3216032735246483e+01  -6.3707330200411647e+00  7.2968061237004083e+00  5.1870648770324648e+00  -5.5093811095328018e+00  -3.7615683960547555e-02  -9.2463650246960452e+00  -1.1333005670898418e+01  -1.0728753354621798e+01  -2.0893850714259496e+01  -9.2834770672414884e+00  -1.1286260318521379e+01  -2.5988547944339313e+01  -1.3657279121184086e+01  1.1331368384267700e+01  -1.0476186271270782e+01  5.9449065509987182e+00  -1.0198002539190863e+01  -1.4115311061550631e+00  -2.0311224436520838e+01  -2.2175351763775151e+01  -4.3393752896593041e+00  1.2173389394588888e+01  -2.3466752500581625e+00  1.0657172946385057e+01  3.6404449456322121e+00  5.0052921623075608e-01  5.4566338256355851e-01  -2.6535134173701671e+00  -9.0309884974297869e+00  1.0455116681142289e+00  -4.3987792868047371e-01  6.9915855345893174e+00  -3.3156405872819534e+00  -1.6618381173070638e+01  7.1169500211676349e+00  -6.4928893417202875e+00  6.9665977212510088e-01  1.0762505227939423e+00  4.5350516573618194e+00  -2.2075506958156725e+00  -3.4026271993607269e+00  -2.5456372901454043e+00  -4.4864715543729448e+00  1.1708233687663407e+01  1.2045801226632518e+01  -1.7456318809285246e+01  -2.4012320093552091e+01  -1.02876054