<?xml version="1.0"?>
<VTKFile type="UnstructuredGrid"  version="0.1"  >
<UnstructuredGrid>
<Piece  NumberOfPoints="5089" NumberOfCells="9865">
<Points>
<DataArray  type="Float64"  NumberOfComponents="3"  format="ascii">0 1.5 0  0 0 0  0.1029058182573948 0 0  0.1029058182573948 0.02393156642875577 0  0.1251489251828899 0.06631226582407952 0  0.1645395112957465 0.09350162426854149 0  0.2120536680255323 0.0992708874098054 0  0.2568064746731156 0.08229838658936564 0  0.288545602565321 0.04647231720437685 0  0.3 0 0  0.51 0 0  0.5220577136594005 0.04499999999999999 0  0.555 0.07794228634059948 0  0.6 0.09 0  0.645 0.07794228634059946 0  0.6779422863405995 0.04499999999999999 0  0.6899999999999999 0 0  0.8924037639192813 0 0  0.8924037639192813 0.02287028598995353 0  0.9110081306187559 0.06465637775217206 0  0.9450000000000001 0.09526279441628825 0  0.9885018690405581 0.1093974084905101 0  1.033991869381244 0.1046162167924669 0  1.073604366699474 0.08174593080251337 0  1.100490000340686 0.04474103073833802 0  1.11 0 0  1.502905818257395 0 0  1.502905818257395 0.02393156642875577 0  1.52514892518289 0.06631226582407952 0  1.564539511295747 0.09350162426854149 0  1.612053668025532 0.0992708874098054 0  1.656806474673116 0.08229838658936564 0  1.688545602565321 0.04647231720437685 0  1.7 0 0  1.82324056211084 0 0  1.82324056211084 0.02253860454731437 0  1.847611141284377 0.06045996594834066 0  1.888614812938137 0.07918571535047463 0  1.933233201040151 0.07277055962836147 0  1.967300282626494 0.0432512653964478 0  1.98 0 0  2.202905818257395 0 0  2.202905818257395 0.02393156642875577 0  2.22514892518289 0.06631226582407952 0  2.264539511295746 0.09350162426854149 0  2.312053668025532 0.0992708874098054 0  2.356806474673115 0.08229838658936564 0  2.388545602565321 0.04647231720437685 0  2.4 0 0  2.51 0 0  2.522057713659401 0.04499999999999999 0  2.555 0.07794228634059948 0  2.6 0.09 0  2.645 0.07794228634059946 0  2.677942286340599 0.04499999999999999 0  2.69 0 0  3 0 0  3 1.5 0  0 0.75 0  1.5 1.5 0  0 0.375 0  0 0.1875 0  0.75 1.5 0  2.25 1.5 0  3 0.75 0  1.803364316093307 0.8194216192460635 0  0.7085714285714286 0.7914285714285714 0  2.396697907928333 0.698796196655595 0  1.26039230397729 0.6323879781298929 0  1.125 1.5 0  3 1.125 0  0.375 1.5 0  1.418284719659703 1.05567510076647 0  2.625 1.5 0  0 1.125 0  2.4375 1.120298797465005 0  0.4140309460188812 0.4815551607069073 0  0.9375 1.133540466589862 0  1.875 1.5 0  0.4143011358073044 1.085698864192695 0  2.042557228405723 0.4764057674039468 0  3 0.375 0  1.615235786026768 0.4839120951620492 0  0.9172436665953028 0.4786128535408891 0  2.136144598898015 0.9367443054342734 0  2.712089662802327 0.5625 0  1.752709466448716 1.168812671476193 0  2.696461986964791 0.9012929362807449 0  1.307422665144653 0.3094324321200764 0  2.0625 1.24476578117044 0  2.446405755792607 0.3860402512509704 0  0.3158723471199726 0.7836709721106835 0  1.018921994797561 0.831404696897531 0  1.521099871135537 0.7571953762650785 0  2.718190509848388 1.189592528269884 0  0.665307193508031 1.225469494285917 0  1.199897701782483 1.230481185797768 0  0.2233959957266646 1.276604004273335 0  0.6649397520368477 0.3607836886074089 0  0 0.5625 0  2.685543358160364 0.3192521589045413 0  1.775621962986754 0.2975552026784072 0  2.025654700292002 0.7195245521041802 0  0.1961827192748887 0.9897295638426992 0  1.25729921569077 0.8746334216075233 0  1.534142212444284 1.264044413891354 0  1.624439414641745 0.9597398592303362 0  2.117668421489377 0.2641528949307972 0  1.945094170902585 1.053880768096555 0  3 0.1875 0  0.6251639682912251 1.002291403912492 0  0.719601375969486 0.5727782913443102 0  0.2313942916225519 0.3335511938861402 0  0.4687668770508729 0.274248243200137 0  0.5143238740412669 0.6811446824633056 0  1.829350286632844 0.5059917594077202 0  1.082379929992235 0.3249418149194327 0  2.540679850598416 1.305492850437689 0  2.282283153018704 1.279796495628565 0  2.355666841619378 0.9154942188580675 0  0.2114722061938988 0.5448236655965607 0  3 1.3125 0  2.8125 1.5 0  2.263750685400308 0.5173381079832993 0  0.4343085727049624 1.296611441170993 0  1.6875 1.5 0  1.016037518489582 1.324553740130353 0  0.846292314151325 0.9469220663180872 0  1.122827752751251 1.035495517001457 0  1.3125 1.5 0  1.306452909128697 0 0  0.8906638629565067 0.6773217378320744 0  1.517175933126145 0.2981487507037606 0  0.7996957920902151 0.2224603600775558 0  1.446370464174038 0.5785990786868803 0  1.689965192988266 0.6625083927402473 0  0.4864273298880485 0.870473805626289 0  3 0.9375 0  2.831315819563651 1.036097903808422 0  1.106384347284952 0.5163011422226527 0  0.5625 1.5 0  0.9375 1.5 0  0.1875 1.5 0  2.0625 1.5 0  3 0.5625 0  0 0.9375 0  0 1.3125 0  2.4375 1.5 0  2.196044825237544 1.113880351688974 0  2.210431846521007 0.695834380790271 0  0.8262236946704767 1.326155809103077 0  2.523003751809735 0.8349453583788917 0  1.882533682486712 1.30904671408086 0  2.845 0 0  2.813607095438526 0.1837681344374856 0  2.298597604800397 0.280431891689246 0  1.972062138207083 0.8834951655964545 0  1.943392101370151 0.2475417334111557 0  2.828663592588797 0.4267055109367558 0  2.803791026183859 0.7364868569598708 0  2.523250359922468 0.5585816735541729 0  2.602935827188279 1.053310414780935 0  1.692458045540587 1.328962813001376 0  1.232271555781778 0.154950218767993 0  1.36985844680238 1.21899526865025 0  1.785321775315372 1.004919979330962 0  2.534633602602767 0.2439507161942105 0  0.7651985499724481 1.092302611968735 0  2.637828969450683 0.71279922663893 0  1.100469689258933 0.6843495375675052 0  1.315800235513153 0.4755545830105288 0  1.405546076805209 0.1782543944119986 0  2.826282129872177 1.326282129872177 0  0.575884497984488 0.4967904868667201 0  0.1516233666565383 0.826056857120972 0  0.3483704262380678 0.6272257636119053 0  1.568331672486121 1.108640197801574 0  1.475101554186818 0.9082985267599337 0  1.868470483419324 0.6670273102604994 0  0.3467545185571825 0.9433646607171683 0  2.15625 1.373787484318285 0  1.41742615593433 1.367603819494743 0  2.854904919456998 0.8828609574219635 0  0.9476741986655126 0.255395459587152 0  1.267450600339273 1.091056105706913 0  0.114311143675241 0.65625 0  0.65625 1.37859278398136 0  2.170651243108527 0.4023187025489676 0  1.21875 1.380886352874642 0  0.3798992233573569 0.1593768045411093 0  0.9831420651531181 0.9956358347774316 0  1.456186685150796 0.4319140716985383 0  2.586721317152155 0.4269308613840649 0  2.863979293145301 1.178604739864835 0  1.658646098314701 0.8045749301224775 0  1.383553643956373 0.7098158224076794 0  0.154006438477797 1.138458423126247 0  2.856044831401163 0.5977865618779903 0  0.553876003596687 1.130313370813194 0  2.680231675041409 1.360526450748891 0  2.486056782242186 0.9722817331473952 0  1.891212003911469 0.3789027676568836 0  0.8138227412155181 0.37102502168449 0  1.064674644221452 1.192903489156071 0  0.6045358160041144 0.2320910326486189 0  1.194008126159845 0.4081242368041457 0  2.138311355076408 0.5770795769918613 0  0.134142636330111 0.2313017261983794 0  0.8460209454012837 0.8084258449188535 0  0.1293517554287885 0.4305045409359897 0  0.3205820557512212 1.373790064297892 0  0.2928933613730453 1.155196229839076 0  2.404969940572298 1.358123451328196 0  0.9933877375830629 0.5899302104012978 0  2.090287791367255 0.1211621925433303 0  2.904889173308855 0.28125 0  0.1246766077328953 1.375323392267105 0  2.302041695038792 0.7931069109810627 0  2.389228836127323 0.5648368411465005 0  1.886839219693261 1.174850198523801 0  1.96875 1.5 0  2.005259577028834 1.368575570359887 0  2.58746882374347 1.183267841227943 0  1.646515580921743 0.3486369169127919 0  1.980147904783248 0.5942137934419368 0  2.07740167257538 1.055304717195479 0  1.57300338334685 0.6065157750282059 0  1.59375 1.5 0  1.679678032322464 0.2100937046526968 0  2.252673654577562 0.9960348417811178 0  2.17832845930892 0.8178435559778986 0  1.78125 1.5 0  2.021596890434516 0.349571947542988 0  1.79926971381977 0.1752587163176004 0  0.503878860142697 0.3943984894172995 0  1.146622573165596 0.8060813049917908 0  3 1.40625 0  2.649807995179342 0.2020005420916801 0  0.3438742656237004 0.2790576170649142 0  1.546875 1.386334759531577 0  3 0.09375 0  1.320989371181643 0.9800954309611291 0  1.270074893254929 0.7536540780084714 0  2.70770359261854 0.4387759707667409 0  0.5606072232931772 1.296106034499297 0  0.7858104720553775 1.211812834033452 0  2.317237622700128 1.09958886094401 0  2.518665098961854 0.68166123334458 0  1.747777558052355 0.4158756118164814 0  1.683029275145126 1.069756268641544 0  0.46875 1.5 0  2.407758410849746 0.2048845882413086 0  2.396684507181482 1.235853070423643 0  1.919569286509587 0.7755948020085885 0  2.290752654053557 0.4002939182457882 0  0.2367853577638227 0.6856443876677092 0  1.644821718344275 1.219632237269969 0  0 1.03125 0  0.5821665354391095 0.7878606619613046 0  0.6422016866915001 0.674771619551397 0  0.2917070890414653 0.4458139506278615 0  0.7912018819596407 0 0  0.1045102716700244 1.249819735557644 0  1.151091219660612 0.9224858968529193 0  2.719174284445647 1.071883664029489 0  0.7216906855953001 0.918545393630683 0  0.2528020696803429 0.8787006417214202 0  1.726437981314609 0.9055659975386789 0  1.466273966174817 1.158744006060248 0  0.500278661176367 0.9948136517426003 0  1.114706325735654 0.2023659607018325 0  1.193213601931895 0.2926984867334158 0  0.9725372994821596 0.3724679154862157 0  2.214714190066689 0.1991474088029779 0  2.411776451427861 0.8179674328277735 0  1.997105232295531 1.153439169094244 0  0.497834479014996 1.390464488336983 0  0.4532232073331143 0.5868543641678674 0  0.4094710929462204 0.7215160819073434 0  0.2730945637736263 0.1927345247561336 0  2.091452909128697 0 0  1.88727127931541 0.9574017932976476 0  0.7331675361580886 0.4562359341911597 0  0.808798696301996 0.1107204599928528 0  2.794056136375906 0.2935548935723623 0  2.172174128810919 1.263645408055929 0  2.266351953173893 1.389929090293708 0  0.9205129738298803 1.252177379624563 0  2.58760749
[...]
<PointData  Scalars="f_66"> 
<DataArray  type="Float64"  Name="f_66"  format="ascii">1.3455669159792910e+01  -2.6946904028711533e+01  -2.5463845399464077e+01  -2.4902803779637178e+01  -2.3825763534174907e+01  -2.1727407238341737e+01  -2.3157613297107673e+01  -2.4046550728012324e+01  -2.5271584064144605e+01  -2.6695148025093346e+01  -2.2352180321928063e+01  -2.2401735807846297e+01  -2.3652795727120736e+01  -2.3502689357753976e+01  -2.3483331928925146e+01  -2.2141322032378717e+01  -2.2042421871498718e+01  -2.3587093101602935e+01  -2.2624973842055155e+01  -2.2881791253858040e+01  -2.1504419119582636e+01  -2.0017947114404876e+01  -1.8645796956101670e+01  -2.0194597956162369e+01  -2.1790519529620621e+01  -2.2413053575660335e+01  -2.1699841032943283e+01  -2.0789508044775772e+01  -2.0070238121742481e+01  -1.8670875235312291e+01  -1.6909144536455422e+01  -1.7190910955475264e+01  -1.9145923964357578e+01  -1.9673968486094584e+01  -2.0657689760814488e+01  -1.9652468226046008e+01  -1.8151787186374442e+01  -1.6496626623006669e+01  -1.5085880696665917e+01  -1.6498546955387653e+01  -1.7026233861241344e+01  -1.6311364708505717e+01  -1.5764912703501189e+01  -1.4896741544336800e+01  -1.2760898092350445e+01  -1.3382800272276594e+01  -1.3934576961747249e+01  -1.4343925464073898e+01  -1.4947187283544590e+01  -1.2913718538236846e+01  -1.2451324070851799e+01  -1.1186852600855630e+01  -1.0793787840781889e+01  -1.1238901116941173e+01  -9.5044543398945844e+00  -9.7264227473574252e+00  0.0000000000000000e+00  0.0000000000000000e+00  -8.7439739405593873e+00  1.7932889070333417e+01  -1.8384398197002994e+01  -2.2766651967431319e+01  1.2918206052638141e+01  1.4968471710292141e+01  0.0000000000000000e+00  -1.2921193076468815e+00  -5.4031250151530754e+00  -1.8717781616827480e+00  -7.5091449857629708e+00  1.4894761187021901e+01  0.0000000000000000e+00  1.2795329523007981e+01  3.2000321603514759e+00  1.3200927807716637e+01  1.1698039896608641e+00  5.4037400046921729e+00  -1.4202001880223918e+01  3.8578189249665797e+00  1.6191747234745304e+01  1.1691363274614714e+00  -7.8584881234611217e+00  0.0000000000000000e+00  -9.7802040183413101e+00  -1.2556321458707155e+01  2.0115978778034282e+00  -2.4807256642397468e+00  6.6809094293199847e+00  1.4265451645870877e+00  -1.5184481732419815e+01  8.7614739571697413e+00  -7.1899238057272097e+00  -6.8439706696051683e+00  -3.4197553332072732e+00  -3.6311079299915270e+00  4.6738958520778420e+00  5.4148354812847783e+00  6.9711960243833344e+00  5.4700628824935631e+00  -1.6460512634436697e+01  -1.3688283605699816e+01  -5.8100891970678576e+00  -1.3446549839459204e+01  -2.7101817528823728e+00  -1.9288919167745446e+00  -1.6014574030163571e+00  8.6467501023481947e+00  1.4950425744606559e+00  -1.2100445700987720e+01  4.3521832315386400e+00  0.0000000000000000e+00  -3.5049296089975157e-01  -1.0884917419296780e+01  -1.8633145008725538e+01  -1.9293013745663810e+01  -8.8747230210847974e+00  -8.3435998087772489e+00  -1.5770197257713384e+01  8.5293286228613390e+00  9.3155125045386669e+00  1.9737914892653581e+00  -1.3350891455046975e+01  0.0000000000000000e+00  8.9092859409126071e+00  -5.7695628508173904e+00  6.5833130406935689e+00  1.5122220276106694e+01  8.8980469006460048e+00  -1.1428584620328193e+00  1.8759631846272689e+00  1.4361352238749944e+01  -2.0495484522286080e+01  -7.6976006732034712e+00  -1.4689766882248863e+01  -1.9362576265533008e+01  -8.1787273680523782e+00  -5.2582826422538815e+00  -4.1481606581444197e+00  0.0000000000000000e+00  1.7838078682612781e+00  -1.0952502177050778e+01  1.4841311019820184e+01  1.5748992413463522e+01  1.1443585871854630e+01  1.7846307318942628e+01  0.0000000000000000e+00  -3.7737848373300369e+00  6.2406476049926844e+00  1.7163397736145637e+01  5.7666553045959335e+00  -2.6414686208776406e+00  8.3208223365753646e+00  5.4869109443254882e-01  1.0285604590564521e+01  -6.6114161134807503e+00  -5.8427154783098745e+00  -1.0348272122883614e+01  6.4238807224698169e-01  -1.3572568328166945e+01  -2.7849957713208013e+00  -5.0793959632851582e-01  -3.5842181541583864e+00  3.9631766755899331e+00  1.0489497800416100e+01  -1.9149114090877411e+01  7.0893635558380863e+00  2.9151467101835191e+00  -8.7440435891410733e+00  2.2785402913099935e+00  -5.9088426921752024e-01  -6.8275704874482166e+00  -1.1126465599885197e+01  -1.8044468377778514e+01  4.5181175508338667e+00  -1.3339168663197047e+01  -6.2884676354448557e+00  -1.0720702473359697e+01  4.9223677933481422e+00  -1.7753075766923224e-01  -4.5328732397013116e+00  -2.6430468730974237e+00  1.1994704332304579e+01  1.0951684404679193e+01  7.9366127536479869e-01  -1.8013212639779386e+01  3.7381826145391610e+00  -1.0801228915083698e+01  9.4659646498743779e+00  -8.8144967645163206e+00  1.1251105480391374e+01  -2.2346247126921458e+01  5.6638787200967577e-01  -1.1677380865264659e+01  -4.8601938052535987e+00  2.7448727366020380e+00  -2.0573435276777112e+00  -5.2317921353779528e+00  1.8249195823426319e+00  -9.9660711696284277e-01  2.6118032394342587e+00  8.5371120343623090e+00  2.6278875010535097e+00  -1.0957818562078806e+01  -1.5619710632912867e+01  5.6400139212327334e+00  -1.9962887056646966e+01  -1.3265662431562413e+01  -5.3560186093255702e+00  -2.1157288093518883e+01  -4.5963101202222738e+00  -1.6491871151922364e+01  8.6072831159318017e+00  2.5939134810067537e+00  1.0971349936028458e+01  -9.4974890213549230e+00  -1.5176539997945902e+01  -2.7331788389644869e+00  8.0095336452422536e+00  -3.1553999734254923e-01  -4.2332578968818790e+00  7.0575816083677472e+00  1.5312640363520700e+01  1.1773212327653754e+01  6.0345100907230540e+00  -1.2871637996960825e+01  -5.6050699808997395e+00  4.5221979007501751e+00  -7.0294224613924738e+00  1.5321769111144981e+01  -1.5852711882036557e+01  3.4038610882995424e+00  -3.5588996377598670e-01  1.8246985212914304e+01  -1.0774483355583319e+01  -1.6049699601393197e+01  -1.6186788550303639e+01  -3.6858756077215493e+00  0.0000000000000000e+00  -8.0287213144814196e+00  -1.9503196672436427e+01  1.2038642384381438e+01  0.0000000000000000e+00  1.1532023830616414e+00  -4.5150822459611257e+00  -4.0115862606096568e+00  6.8665253932768993e+00  5.3110952532910023e+00  5.4903898785973606e+00  -1.7650398906881715e+00  -1.0781256518300461e+01  4.2158897997835894e+00  1.2096707862055865e+01  -1.0958053770199658e+01  7.9517854888400139e+00  -1.9133456853210162e+00  -7.8979554037135884e+00  -9.6527118524579727e+00  7.7453563611741405e+00  -1.2833303210625850e+00  -5.9349127353136266e+00  -8.5670365886097866e+00  -1.5556457085751211e+01  -2.2027352571919945e+01  4.6393545958013327e+00  -8.1396018063051134e-01  3.1436616722189297e+00  -2.1708827235871513e+00  -4.6286710263406121e+00  4.8125961077689877e-01  5.8344679581745940e+00  -9.6333006950752686e-01  -1.8532692115554539e+01  -1.6091602118380216e+01  -1.5015718730613960e+01  -1.2660032182986367e+01  1.5345282114079623e-01  6.6600903418959341e+00  9.1989002150197834e+00  -1.1432987073625105e+01  -8.1241935245326964e+00  -2.1820466331005210e+01  -1.8044381246770172e+01  2.0499393516240745e+00  -1.3782521462184953e+01  -2.1719668244209885e+01  -4.9081679602094708e+00  9.1177557858270752e+00  1.2125866602975279e+01  6.7856190782607300e+00  2.1363270276843500e+00  -3.2055780849293063e+00  9.5179779917064096e+00  2.4003956199476773e+00  -2.2587941282066435e+00  1.1308093431763160e+01  -1.0585276804958886e+01  -7.9529724731817124e+00  -3.1272899973882726e+00  0.0000000000000000e+00  -1.0110676180002776e-01  1.0587434357423156e-01  1.2612043549169867e+01  -8.0341284286915684e+00  -8.3768272424378107e+00  2.3466721898287366e+00  -2.1523135733122718e+01  -1.6845095106586015e+01  -1.0201911895353691e+01  -1.3935593801514591e+01  3.8804898532691587e+00  -2.0892956889351122e+01  3.7521392505826325e+00  -8.4530697204131655e-01  -2.2884173362121000e+01  8.8730091485942300e+00  -1.7228554818783127e+01  -1.5414960123769339e+01  -2.3710863872434249e+01  -6.8511788498533495e+00  2.9850737318912688e+00  4.4518983604111044e+00  5.1279436069616624e+00  0.0000000000000000e+00  7.9111598909089600e-02  -1.2174455084261556e+01  1.3712102089540961e+00  -2.5738187616767076e+00  -3.5665866412081946e+00  -6.3137396837816047e+00  1.3655652247233975e+01  1.1336604439010973e+01  1.4690659945548704e+01  1.0695364863323213e+01  1.3303581552550561e+00  4.6079898581860190e+00  -2.0526947348954526e+01  -1.9583394828490746e+01  1.6236575491727205e+01  -2.3092383549812001e+00  1.3536871505051349e+00  2.4783875755341906e+00  7.2042631070476162e+00  -1.9066760203621893e+01  -8.3500855364963709e+00  4.8360041529657103e+00  6.7344394609366036e+00  7.5067203543360828e-01  5.5055015955683062e-01  -1.4987151911671004e+00  1.2671238198607934e-01  -1.1866353277792498e+01  -1.3381973454115579e+01  8.9398017201146338e+00  1.3557430548459075e+00  5.8051873137935166e+00  -8.3946135107261259e+00  -1.0756841000460694e+01  -1.5113285234980905e+01  -7.5787635042388839e+00  -3.1272600808598070e+00  -5.9633768280145603e+00  -4.7092837084396466e+00  -9.2479348983930798e+00  -9.3555808192076129e-01  8.8238083584429781e+00  -2.0016792966266440e+01  -1.8476208151178245e+01  -1.3335835745955704e+01  1.4716935352617769e+01  8.2648657654894926e+00  -1.9301170071387765e+00  -6.1666315449653606e+00  -4.8417152061706243e+00  3.4581046478164894e+00  -1.6110899186033077e+01  9.2373207353814593e+00  1.2847253240956121e+01  -1.7722469625845591e+01  0.0000000000000000e+00  0.0000000000000000e+00  1.9887693865627032e+00  1.2264094157963619e+00  -6.4710608639245670e+00  -1.3186848229868549e+01  6.6539083450274719e+00  1.0313298183942711e+01  7.6002019925157684e+00  -3.1747369049604823e+00  -5.3747731272346932e+00  3.0842675553777328e+00  -6.2361095913755520e+00  1.2286211526996359e-01  0.0000000000000000e+00  -2.0664311527328266e+01  1.1469995401283503e+01  1.4098435868110725e+01  -1.1207793947972515e+01  1.4979322466968760e+01  1.6951824378506267e+01  -2.4389358419323941e+01  1.6934957805129415e+01  0.0000000000000000e+00  3.6412888551976668e+00  9.1494532218791846e+00  1.3252304098167034e+01  1.4599588998431290e+01  7.2365278735500391e+00  -5.0580934920957068e+00  -6.7597132689490191e+00  -2.1066754371424659e+00  -1.2934150873182071e+01  -9.1415812505024743e+00  3.8636988484281569e+00  -6.6383806959690785e+00  -1.5071489559725043e+01  9.8935155920728519e+00  -5.6018608845940179e+00  -7.5689311550869220e-02  -2.2316937087477232e+01  7.0218118662306206e-01  -1.2070011411603643e+01  -1.0884547032176792e+01  -4.3890159015715948e+00  1.2008251932119864e+01  -6.3565931903857082e+00  1.2961581356043373e+01  -1.6774179631536273e-01  2.8837923451029246e+00  1.6611772761929733e-01  -1.3836623111972635e+00  -2.8989941440265916e+00  4.9130585118771100e+00  2.7257357010467538e+00  -2.0040588846699681e+01  -1.1568446979797331e+01  8.8261968875082708e+00  -6.8898838703948790e+00  3.6722131153083373e+00  -1.5555374148053073e+01  -1.6396186944770889e+01  -4.3008569528594238e+00  -1.8684537108413060e+01  5.9633380264844611e+00  -1.3107787035803632e+01  -1.2694912113500948e+01  -1.7538415047204257e+01  5.3471247147886460e+00  -2.0026476690698424e+01  -6.4724806359509000e+00  -3.1397437199128189e+00  -2.2992796374039223e+01  -8.6201237706407969e+00  -7.9858536710457129e-01  -8.9642271836810643e+00  4.7587895574981305e+00  3.8280585168610464e+00  -1.5463515423828678e+01  1.4727388452183712e+00  9.6583286387549236e+00  -6.8179046502631211e+00  -1.0136725474181185e+00  8.6971246523498742e+00  5.0372302723209099e+00  6.0747669521519132e+00  -1.7624951228786728e+01  -1.0971305981763171e-01  -3.9874159881690137e+00  -6.8282598168467574e+00  -7.2873662807193389e+00  -9.6168159454564535e+00  1.0986740249398830e+00  -4.5932085294130109e+00  4.7402735247235706e+00  -7.2573409833799829e+00  -5.2107549692293462e+00  -7.9036602280472679e-01  -1.5305368653081077e+00  -3.0287633942661168e-01  -9.6742270013258285e+00  -8.3003240839279773e+00  4.7607061048106720e+00  2.2968233555105759e+00  1.1075397844693816e+01  6.0247394513781494e-01  3.9375873757735400e+00  -1.4449705055824249e+00  -9.2188299808789882e+00  -1.0191736467949244e+01  -1.3197576126421859e+01  -1.6828334025465146e+01  -3.0173546501582762e+00  -8.7734611625284415e+00  -3.5333881830197571e+00  -3.1133518004252259e+00  -2.2948994688478694e+00  -4.8332639331207625e+00  -2.9985884164848078e+00  -1.6622567288989330e+01  2.5631448939393997e+00  -1.1767081974895797e+01  -1.4125402340771140e+01  -1.3798349157623454e+01  -2.5176650705670407e+00  -2.4177199687544281e+01  -2.3676192087855443e+00  8.4685738951764389e+00  -1.1542655803857201e+01  -8.7942741408253902e+00  -6.0960356631038701e+00  1.0886286981059083e+01  1.3844701202579493e+01  6.9020334991239096e+00  3.3374303275759352e+00  1.0910673737159597e+01  -2.0977572815818462e+01  -2.0459943139550607e-01  -3.6456583310720325e+00  1.1659544367572856e+01  -9.2247682267225048e+00  1.4358732150585867e+00  4.1039339996646795e+00  6.9151981599203216e+00  -2.0322531126655852e+00  -7.4569939531754970e-01  1.3875743931522676e+01  1.3567550438534148e+01  1.0545132900157528e+01  -3.7982896578113423e+00  -1.8343712515482533e+00  -7.8298971230000589e+00  1.3774979937518289e+01  6.8163403952158559e+00  3.9422163970820030e+00  -9.5334842365383246e+00  -2.2635898191913154e-01  8.9925634421165512e-01  2.1491141364067384e-01  3.0729829270839950e+00  -4.6853229667971039e+00  6.0606375433752300e+00  3.3301227829778073e+00  1.2767720613470900e+01  5.6209377650390513e-01  2.6241062559585551e+00  -1.3614763890617118e+01  -1.4021484131706009e+01  -1.3688905762896541e+01  7.2973886259042207e+00  -2.2021466737019065e+01  -2.0605677713306925e+01  -1.7460279152880865e+01  7.6675089596952484e-01  -1.4480639425754461e+01  -6.4783916972122650e+00  2.9987889512991122e+00  7.3694016164570169e+00  -1.8358209691836734e+01  -1.6572907309161529e+01  1.2641830023710945e+01  8.9613203760363778e+00  1.0306823389368470e+01  1.0623262793040897e+01  -5.9734228038445654e+00  2.2501274798558057e+00  1.0760199785459026e+01  -1.6537883696814291e+01  -1.7489326547787694e+01  -2.3843250613607372e-01  -1.0098016215304561e+01  -1.5926463148807544e+01  -7.0397926170363556e-01  -7.4828341174681086e+00  -1.1604549657744304e+01  -1.0452371929589756e+01  -1.2327820160549829e+01  -9.7815635344591243e+00  -1.2214013310343901e+01  8.1886560849211705e+00  1.2118567127884288e+00  -2.1493995654477871e+01  8.1325132888352691e-01  2.1081867964042491e+00  -5.1463622984884143e+00  -4.4653020041160882e+00  -1.9544409878936481e+01  -2.0604724720669854e+00  -1.6236092956598178e+01  1.3412353285163981e+01  -2.5384768645815314e+00  -3.7330368896697554e+00  -1.4749898015059566e+00  -4.6195230000845786e+00  -6.5986845752847145e+00  -6.1988654481096734e+00  -2.3977908629658543e-01  2.1960529204356014e+00  -2.3011739043164805e+01  -2.1004486916257910e+01  -1.2261133817271247e+01  7.4983345512727171e+00  -1.6642713524946746e+01  -1.4490672036794274e+01  7.8859886955756631e+00  4.3862305925805440e+00  -1.7917453621003087e+01  -2.0751661057963709e+01  -1.4485783994846027e+01  -1.4296297928449528e+01  3.0624190328158329e+00  1.5808455271371378e+00  7.6878195721884142e+00  -1.9456622654548642e+01  -2.1558548636664970e+01  -1.8297216168614579e+01  3.5158703773150486e+00  1.1612665323430139e+01  -9.6266620802707159e+00  -1.5745895490254176e+00  -1.1720496723885393e+01  -1.7448168921340528e+01  -2.5028482954649331e+00  -1.2046176344816072e+01  -9.9280078138214680e+00  -6.9558168914143712e+00  1.5172656643248168e+01  -1.6967419019898326e+01  -1.4806948757832256e+01  -1.7536334013555361e+01  -3.7499978992533203e+00  6.5542021172075682e+00  4.5644129413803469e+00  6.0747129134553504e+00  1.4149747678444818e+01  2.2204126499194752e+00  -1.6128749516589817e+01  9.9839035289777929e+00  7.4959886326432201e+00  9.5053599784976655e+00  7.0692489571433867e+00  -8.8007170689759295e+00  -1.1709787664757336e+01  -1.4107249529407850e+01  -1.1751778218977613e+01  -1.3651254077116814e+01  -1.1427275777191719e+01  -1.2544288406874390e+01  -1.3208927429907408e+01  -1.5802879390975605e+01  -1.9114660298598016e+00  -5.6592754514259747e-01  -6.0592001523166878e+00  -5.0408713397951592e+00  3.2269011784972639e+00  5.3623733266959368e+00  -9.2382360666575849e+00  6.7452538838291165e+00  1.0438117767262581e+01  2.1927108615502680e+00  -1.4119762038092087e+00  -2.0596933071592538e+01  1.0561919862470809e+01  9.7847679701810257e+00  1.3669184564033200e+01  8.6145854482053608e+00  -2.1230741894831848e+01  -8.2247916685128644e+00  5.0584541779310435e+00  -1.9473169637184121e+01  6.9314647156999358e+00  -1.0902622693323483e+01  -1.0258701663200842e+00  -3.5319936880602625e+00  -3.8649197032246874e+00  -1.4764164754887185e+01  -2.5581250846047463e+00  8.6643812481914360e+00  5.6096145655730441e+00  -7.2326389023543083e+00  -6.2916684944603114e+00  -4.2802256740856093e+00  -3.0404531708953635e+00  -5.2455080760878543e+00  -3.3218960530185044e+00  9.3719725610485849e+00  -7.0380369630844264e+00  1.4036361596906923e+01  -1.7005006089847456e+01  -1.0924936547861643e+00  9.6056432941117154e-01  -1.1688904819120258e+00  -2.2859193872996038e+00  -1.3140227355376830e+01  1.9026777083183885e-01  -5.0325929080158014e+00  -6.9670742030230173e+00  -4.1271723983660982e+00  -6.8133393879254553e+00  -1.7996823221833086e+01  -1.0388986058539901e+01  -1.2334054729617153e+01  -1.0618755332919255e+01  -1.9795766028928203e+00  -6.3320434967406909e+00  3.8867837726610222e+00  3.1518376340843361e+00  5.1466666901203393e+00  1.0923103418798643e+01  -1.1986790864718282e+01  1.0787502548712650e+01  -2.5151623471988045e+00  1.1908810714214983e+01  9.8138908068426129e+00  1.5136387861504628e+00  -1.6744196725485033e+01  -1.8675116760217087e+01  5.9231501467193377e+00  7.1563531436341083e+00  2.6868789029047040e+00  4.5325145792795674e+00  -1.9673103272764621e+01  3.8260928850386029e+00  3.5761145233004337e+00  -2.1380243092662847e+00  -1.7886575322321139e+01  -5.2543857461934209e+00  4.0922181522820464e+00  -5.9865617940825535e+00  -7.1610802812562353e+00  2.5512424609523277e+00  1.3447645475250187e+01  -1.6645275235023167e+01  -1.5179495397886447e+01  -6.3560422388081239e-02  -7.7737538703985036e+00  -8.4948468458745978e+00  6.0058488229866880e+00  7.2231243970680712e+00  -2.2541683537013877e+00  -1.0579301928329427e+01  -1.4910833049025245e+01  -1.1765278233470458e+01  -1.1121465172178411e+01  -2.9778373746906177e+00  -1.8515903334257537e+01  -2.4517119104514062e+01  -7.8067599277431556e+00  -1.0090657528582083e+01  -3.7869842869839125e+00  1.0286595397439671e-01  9.1225614659695733e+00  2.2333192111545288e+00  -1.4675919617791248e+01  -1.9444959037864763e+01  -8.0753447011288237e+00  -6.5308778857153200e+00  4.9387466261664859e+00  1.2857749546318049e+01  6.3253727367232404e+00  3.5288360363693161e+00  5.3230535338563243e+00  1.3853329705245642e+01  -2.1195481505853000e+01  -5.2507414668592798e+00  8.6312149764134585e+00  6.2592194056659070e+00  -4.4631247476638789e+00  1.0493202626048090e+00  -8.0863086791936425e+00  -1.0158442591191402e+01  -9.5909268819488283e+00  -1.9613118506343007e+01  -8.0890188387116009e+00  -1.0106272889935015e+01  -2.2340693958281111e+01  -1.2436278420406587e+01  1.3408309930090129e+01  -9.4746510900083400e+00  7.1401886889530299e+00  -9.6292199404896088e+00  -3.1186411389007329e-01  -1.8942725329326819e+01  -2.0747182002418434e+01  -3.2381173037628477e+00  1.4673791801991937e+01  -1.2149137044925737e+00  1.3195308058141364e+01  4.8328273446716254e+00  1.4742704998235183e+00  1.1589223242166928e+00  -1.5413653061635926e+00  -8.9943959495533914e+00  2.1365840381265477e+00  6.2847762267363189e-02  8.2926893572597695e+00  -3.2149796925413914e+00  -1.5337255844722048e+01  8.4747676500198192e+00  -5.5812549817970680e+00  1.8405728182601460e+00  2.2754019586968299e+00  5.6012381250274101e+00  -1.2122960299913104e+00  -2.6758991178016096e+00  -1.7994800096476371e+00  -3.8953399542205513e+00  1.3543692680492901e+01  1.4494893679645854e+01  -1.6165759019855553e+01  -2.2277484631381089e+01  -9.1199650292696166e+00  8.05649891