<?xml version="1.0"?>
<VTKFile type="UnstructuredGrid"  version="0.1"  >
<UnstructuredGrid>
<Piece  NumberOfPoints="5089" NumberOfCells="9865">
<Points>
<DataArray  type="Float64"  NumberOfComponents="3"  format="ascii">0 1.5 0  0 0 0  0.1029058182573948 0 0  0.1029058182573948 0.02393156642875577 0  0.1251489251828899 0.06631226582407952 0  0.1645395112957465 0.09350162426854149 0  0.2120536680255323 0.0992708874098054 0  0.2568064746731156 0.08229838658936564 0  0.288545602565321 0.04647231720437685 0  0.3 0 0  0.51 0 0  0.5220577136594005 0.04499999999999999 0  0.555 0.07794228634059948 0  0.6 0.09 0  0.645 0.07794228634059946 0  0.6779422863405995 0.04499999999999999 0  0.6899999999999999 0 0  0.8924037639192813 0 0  0.8924037639192813 0.02287028598995353 0  0.9110081306187559 0.06465637775217206 0  0.9450000000000001 0.09526279441628825 0  0.9885018690405581 0.1093974084905101 0  1.033991869381244 0.1046162167924669 0  1.073604366699474 0.08174593080251337 0  1.100490000340686 0.04474103073833802 0  1.11 0 0  1.502905818257395 0 0  1.502905818257395 0.02393156642875577 0  1.52514892518289 0.06631226582407952 0  1.564539511295747 0.09350162426854149 0  1.612053668025532 0.0992708874098054 0  1.656806474673116 0.08229838658936564 0  1.688545602565321 0.04647231720437685 0  1.7 0 0  1.82324056211084 0 0  1.82324056211084 0.02253860454731437 0  1.847611141284377 0.06045996594834066 0  1.888614812938137 0.07918571535047463 0  1.933233201040151 0.07277055962836147 0  1.967300282626494 0.0432512653964478 0  1.98 0 0  2.202905818257395 0 0  2.202905818257395 0.02393156642875577 0  2.22514892518289 0.06631226582407952 0  2.264539511295746 0.09350162426854149 0  2.312053668025532 0.0992708874098054 0  2.356806474673115 0.08229838658936564 0  2.388545602565321 0.04647231720437685 0  2.4 0 0  2.51 0 0  2.522057713659401 0.04499999999999999 0  2.555 0.07794228634059948 0  2.6 0.09 0  2.645 0.07794228634059946 0  2.677942286340599 0.04499999999999999 0  2.69 0 0  3 0 0  3 1.5 0  0 0.75 0  1.5 1.5 0  0 0.375 0  0 0.1875 0  0.75 1.5 0  2.25 1.5 0  3 0.75 0  1.803364316093307 0.8194216192460635 0  0.7085714285714286 0.7914285714285714 0  2.396697907928333 0.698796196655595 0  1.26039230397729 0.6323879781298929 0  1.125 1.5 0  3 1.125 0  0.375 1.5 0  1.418284719659703 1.05567510076647 0  2.625 1.5 0  0 1.125 0  2.4375 1.120298797465005 0  0.4140309460188812 0.4815551607069073 0  0.9375 1.133540466589862 0  1.875 1.5 0  0.4143011358073044 1.085698864192695 0  2.042557228405723 0.4764057674039468 0  3 0.375 0  1.615235786026768 0.4839120951620492 0  0.9172436665953028 0.4786128535408891 0  2.136144598898015 0.9367443054342734 0  2.712089662802327 0.5625 0  1.752709466448716 1.168812671476193 0  2.696461986964791 0.9012929362807449 0  1.307422665144653 0.3094324321200764 0  2.0625 1.24476578117044 0  2.446405755792607 0.3860402512509704 0  0.3158723471199726 0.7836709721106835 0  1.018921994797561 0.831404696897531 0  1.521099871135537 0.7571953762650785 0  2.718190509848388 1.189592528269884 0  0.665307193508031 1.225469494285917 0  1.199897701782483 1.230481185797768 0  0.2233959957266646 1.276604004273335 0  0.6649397520368477 0.3607836886074089 0  0 0.5625 0  2.685543358160364 0.3192521589045413 0  1.775621962986754 0.2975552026784072 0  2.025654700292002 0.7195245521041802 0  0.1961827192748887 0.9897295638426992 0  1.25729921569077 0.8746334216075233 0  1.534142212444284 1.264044413891354 0  1.624439414641745 0.9597398592303362 0  2.117668421489377 0.2641528949307972 0  1.945094170902585 1.053880768096555 0  3 0.1875 0  0.6251639682912251 1.002291403912492 0  0.719601375969486 0.5727782913443102 0  0.2313942916225519 0.3335511938861402 0  0.4687668770508729 0.274248243200137 0  0.5143238740412669 0.6811446824633056 0  1.829350286632844 0.5059917594077202 0  1.082379929992235 0.3249418149194327 0  2.540679850598416 1.305492850437689 0  2.282283153018704 1.279796495628565 0  2.355666841619378 0.9154942188580675 0  0.2114722061938988 0.5448236655965607 0  3 1.3125 0  2.8125 1.5 0  2.263750685400308 0.5173381079832993 0  0.4343085727049624 1.296611441170993 0  1.6875 1.5 0  1.016037518489582 1.324553740130353 0  0.846292314151325 0.9469220663180872 0  1.122827752751251 1.035495517001457 0  1.3125 1.5 0  1.306452909128697 0 0  0.8906638629565067 0.6773217378320744 0  1.517175933126145 0.2981487507037606 0  0.7996957920902151 0.2224603600775558 0  1.446370464174038 0.5785990786868803 0  1.689965192988266 0.6625083927402473 0  0.4864273298880485 0.870473805626289 0  3 0.9375 0  2.831315819563651 1.036097903808422 0  1.106384347284952 0.5163011422226527 0  0.5625 1.5 0  0.9375 1.5 0  0.1875 1.5 0  2.0625 1.5 0  3 0.5625 0  0 0.9375 0  0 1.3125 0  2.4375 1.5 0  2.196044825237544 1.113880351688974 0  2.210431846521007 0.695834380790271 0  0.8262236946704767 1.326155809103077 0  2.523003751809735 0.8349453583788917 0  1.882533682486712 1.30904671408086 0  2.845 0 0  2.813607095438526 0.1837681344374856 0  2.298597604800397 0.280431891689246 0  1.972062138207083 0.8834951655964545 0  1.943392101370151 0.2475417334111557 0  2.828663592588797 0.4267055109367558 0  2.803791026183859 0.7364868569598708 0  2.523250359922468 0.5585816735541729 0  2.602935827188279 1.053310414780935 0  1.692458045540587 1.328962813001376 0  1.232271555781778 0.154950218767993 0  1.36985844680238 1.21899526865025 0  1.785321775315372 1.004919979330962 0  2.534633602602767 0.2439507161942105 0  0.7651985499724481 1.092302611968735 0  2.637828969450683 0.71279922663893 0  1.100469689258933 0.6843495375675052 0  1.315800235513153 0.4755545830105288 0  1.405546076805209 0.1782543944119986 0  2.826282129872177 1.326282129872177 0  0.575884497984488 0.4967904868667201 0  0.1516233666565383 0.826056857120972 0  0.3483704262380678 0.6272257636119053 0  1.568331672486121 1.108640197801574 0  1.475101554186818 0.9082985267599337 0  1.868470483419324 0.6670273102604994 0  0.3467545185571825 0.9433646607171683 0  2.15625 1.373787484318285 0  1.41742615593433 1.367603819494743 0  2.854904919456998 0.8828609574219635 0  0.9476741986655126 0.255395459587152 0  1.267450600339273 1.091056105706913 0  0.114311143675241 0.65625 0  0.65625 1.37859278398136 0  2.170651243108527 0.4023187025489676 0  1.21875 1.380886352874642 0  0.3798992233573569 0.1593768045411093 0  0.9831420651531181 0.9956358347774316 0  1.456186685150796 0.4319140716985383 0  2.586721317152155 0.4269308613840649 0  2.863979293145301 1.178604739864835 0  1.658646098314701 0.8045749301224775 0  1.383553643956373 0.7098158224076794 0  0.154006438477797 1.138458423126247 0  2.856044831401163 0.5977865618779903 0  0.553876003596687 1.130313370813194 0  2.680231675041409 1.360526450748891 0  2.486056782242186 0.9722817331473952 0  1.891212003911469 0.3789027676568836 0  0.8138227412155181 0.37102502168449 0  1.064674644221452 1.192903489156071 0  0.6045358160041144 0.2320910326486189 0  1.194008126159845 0.4081242368041457 0  2.138311355076408 0.5770795769918613 0  0.134142636330111 0.2313017261983794 0  0.8460209454012837 0.8084258449188535 0  0.1293517554287885 0.4305045409359897 0  0.3205820557512212 1.373790064297892 0  0.2928933613730453 1.155196229839076 0  2.404969940572298 1.358123451328196 0  0.9933877375830629 0.5899302104012978 0  2.090287791367255 0.1211621925433303 0  2.904889173308855 0.28125 0  0.1246766077328953 1.375323392267105 0  2.302041695038792 0.7931069109810627 0  2.389228836127323 0.5648368411465005 0  1.886839219693261 1.174850198523801 0  1.96875 1.5 0  2.005259577028834 1.368575570359887 0  2.58746882374347 1.183267841227943 0  1.646515580921743 0.3486369169127919 0  1.980147904783248 0.5942137934419368 0  2.07740167257538 1.055304717195479 0  1.57300338334685 0.6065157750282059 0  1.59375 1.5 0  1.679678032322464 0.2100937046526968 0  2.252673654577562 0.9960348417811178 0  2.17832845930892 0.8178435559778986 0  1.78125 1.5 0  2.021596890434516 0.349571947542988 0  1.79926971381977 0.1752587163176004 0  0.503878860142697 0.3943984894172995 0  1.146622573165596 0.8060813049917908 0  3 1.40625 0  2.649807995179342 0.2020005420916801 0  0.3438742656237004 0.2790576170649142 0  1.546875 1.386334759531577 0  3 0.09375 0  1.320989371181643 0.9800954309611291 0  1.270074893254929 0.7536540780084714 0  2.70770359261854 0.4387759707667409 0  0.5606072232931772 1.296106034499297 0  0.7858104720553775 1.211812834033452 0  2.317237622700128 1.09958886094401 0  2.518665098961854 0.68166123334458 0  1.747777558052355 0.4158756118164814 0  1.683029275145126 1.069756268641544 0  0.46875 1.5 0  2.407758410849746 0.2048845882413086 0  2.396684507181482 1.235853070423643 0  1.919569286509587 0.7755948020085885 0  2.290752654053557 0.4002939182457882 0  0.2367853577638227 0.6856443876677092 0  1.644821718344275 1.219632237269969 0  0 1.03125 0  0.5821665354391095 0.7878606619613046 0  0.6422016866915001 0.674771619551397 0  0.2917070890414653 0.4458139506278615 0  0.7912018819596407 0 0  0.1045102716700244 1.249819735557644 0  1.151091219660612 0.9224858968529193 0  2.719174284445647 1.071883664029489 0  0.7216906855953001 0.918545393630683 0  0.2528020696803429 0.8787006417214202 0  1.726437981314609 0.9055659975386789 0  1.466273966174817 1.158744006060248 0  0.500278661176367 0.9948136517426003 0  1.114706325735654 0.2023659607018325 0  1.193213601931895 0.2926984867334158 0  0.9725372994821596 0.3724679154862157 0  2.214714190066689 0.1991474088029779 0  2.411776451427861 0.8179674328277735 0  1.997105232295531 1.153439169094244 0  0.497834479014996 1.390464488336983 0  0.4532232073331143 0.5868543641678674 0  0.4094710929462204 0.7215160819073434 0  0.2730945637736263 0.1927345247561336 0  2.091452909128697 0 0  1.88727127931541 0.9574017932976476 0  0.7331675361580886 0.4562359341911597 0  0.808798696301996 0.1107204599928528 0  2.794056136375906 0.2935548935723623 0  2.172174128810919 1.263645408055929 0  2.266351953173893 1.389929090293708 0  0.9205129738298803 1.252177379624563 0  2.58760749
[...]
<PointData  Scalars="f_66"> 
<DataArray  type="Float64"  Name="f_66"  format="ascii">1.4802381319767290e+01  -2.5173874861026036e+01  -2.3836716423151280e+01  -2.3338140491452421e+01  -2.2557039821785271e+01  -2.0035976860302018e+01  -2.1747621796559777e+01  -2.2449549519890077e+01  -2.3603088702339598e+01  -2.4925516618761410e+01  -2.0470591765253182e+01  -2.0608736089304664e+01  -2.2307011729258853e+01  -2.2089291069664860e+01  -2.2303233417902842e+01  -2.0473113973600373e+01  -2.0203830176961350e+01  -2.1673613299240195e+01  -2.0590176987016878e+01  -2.1507310833373932e+01  -2.0133355307471998e+01  -1.8731438559755258e+01  -1.7064531706569618e+01  -1.8971899401118762e+01  -2.0339612683604969e+01  -2.0647982166284358e+01  -1.9863497974229531e+01  -1.8899694478681905e+01  -1.8574564854749255e+01  -1.7228450112921145e+01  -1.5375949579789355e+01  -1.5787183431674746e+01  -1.7845467209797498e+01  -1.8119328505693233e+01  -1.8889568312844116e+01  -1.7881166735831759e+01  -1.6543816577854638e+01  -1.5006095842300853e+01  -1.3511390523714176e+01  -1.5172948935593686e+01  -1.5569346976685445e+01  -1.4725633896425258e+01  -1.4273608276408172e+01  -1.3690219765965582e+01  -1.1531889845893918e+01  -1.2420189741440632e+01  -1.2865749691550247e+01  -1.2917166277358852e+01  -1.3112758629564398e+01  -1.1659484060237867e+01  -1.1309000897185385e+01  -1.0488959647300820e+01  -1.0694099895477427e+01  -1.1346928451960576e+01  -8.4893539807806562e+00  -8.9721534749162437e+00  0.0000000000000000e+00  0.0000000000000000e+00  -8.1674809974144154e+00  1.9725206529822596e+01  -1.7790510284372033e+01  -2.2068826436084599e+01  1.4633357733795098e+01  1.6714388583335150e+01  0.0000000000000000e+00  -7.5360640609173668e-01  -4.8247478386332379e+00  -1.4302326042294615e+00  -6.9211421694548285e+00  1.6417094370764225e+01  0.0000000000000000e+00  1.4252604817220396e+01  3.7127066396157966e+00  1.4506413337216744e+01  1.7411584794723565e+00  5.8543072332223298e+00  -1.3605731716630956e+01  4.4378604622747009e+00  1.7632585705652676e+01  1.7539941003983324e+00  -7.2668267901318497e+00  0.0000000000000000e+00  -9.1988800625115399e+00  -1.1972823607691403e+01  2.5022471663595058e+00  -2.5174267607719845e+00  7.1830886698841834e+00  1.8183015923403063e+00  -1.4496422914077394e+01  9.2678777143561550e+00  -6.8417489816229002e+00  -6.2734934166251159e+00  -2.8421488433269020e+00  -3.0730899364782225e+00  5.1402868281980520e+00  6.0143922682602957e+00  7.5220011521143100e+00  6.0081817866519494e+00  -1.5851624161335771e+01  -1.3125660234855225e+01  -5.8889976677255280e+00  -1.2862328423455557e+01  -2.1262532884227006e+00  -1.3787933559275380e+00  -1.0248869886265672e+00  9.2058421928013043e+00  2.0439432805665523e+00  -1.1549335011796693e+01  4.8874028593558920e+00  0.0000000000000000e+00  2.2574045965023981e-01  -1.0304460298577471e+01  -1.8136448774952697e+01  -1.8650747270229608e+01  -8.3369295964828378e+00  -7.7932632818589145e+00  -1.5234639181274801e+01  9.0034135989115196e+00  9.8820593552782228e+00  2.5463719080227123e+00  -1.2809637622694625e+01  0.0000000000000000e+00  1.0894606939912174e+01  -5.2146109559260871e+00  7.1916953801262586e+00  1.6692837284009794e+01  9.5220131719131871e+00  -6.1023738047135001e-01  2.3977036211434726e+00  1.5932665830811350e+01  -1.8797319793246796e+01  -7.1317439242353924e+00  -1.4087438918162078e+01  -1.8697370613135931e+01  -7.6115077425944833e+00  -4.6859253748786207e+00  -3.6063008029081796e+00  0.0000000000000000e+00  1.7672730728790396e+00  -1.0376784690705831e+01  1.6581621933614805e+01  1.7328940207145056e+01  1.2952388084157985e+01  1.9580510828267418e+01  0.0000000000000000e+00  -3.1966828765065838e+00  6.9558483023607716e+00  1.9331076854831746e+01  6.2593750320939208e+00  -2.1525192444755912e+00  8.8606651774783813e+00  9.1314952271953287e-01  1.0847619527395329e+01  -7.0810525504371942e+00  -5.8400566673207166e+00  -9.8249101850334899e+00  1.2008638988232949e+00  -1.2976410092554197e+01  -2.8752486242728059e+00  -5.3594678871263934e-01  -3.2376162104919608e+00  4.5738770394005002e+00  1.1021531851361054e+01  -1.8301470380930947e+01  7.6162468192889952e+00  3.4390182805864953e+00  -8.2635556291799457e+00  2.8235676910556928e+00  -1.5336086312959243e-01  -6.2658211260289383e+00  -1.0520025692030705e+01  -1.7287800415351207e+01  4.4030022549812431e+00  -1.2779744773814000e+01  -5.7307562686945053e+00  -1.0139546887090166e+01  5.4759312665980930e+00  3.5748495999084889e-01  -3.9954355697619328e+00  -2.0570702283471487e+00  1.2744492266927345e+01  1.1526703040847069e+01  9.3013761069754064e-01  -1.7488842379576038e+01  4.3113698930004594e+00  -1.0229095972502735e+01  1.0185684113503438e+01  -8.3085583056560370e+00  1.2081685711062132e+01  -2.1630603574088195e+01  1.1527592891035203e+00  -1.1084749772154385e+01  -4.4614066295388621e+00  2.5987050446395439e+00  -1.4996386823223828e+00  -4.6720023201402361e+00  2.3932874535729525e+00  -9.7466555936954924e-01  3.1469993782293688e+00  9.1656970850511073e+00  2.9835073014954490e+00  -1.0411610027514550e+01  -1.5009939297851085e+01  6.1774634632434928e+00  -1.9303664521024462e+01  -1.2671077990258983e+01  -4.8575694233301299e+00  -2.0498917025325458e+01  -4.0543457571109016e+00  -1.5918616192672458e+01  9.4000346743067844e+00  3.1683946104685958e+00  1.1774766715417091e+01  -8.9053787054292393e+00  -1.4220873469180074e+01  -3.2749054294383892e+00  8.8066351000915439e+00  2.6986574034235472e-01  -3.7989455208585441e+00  7.5898422607981271e+00  1.6994108752566930e+01  1.2358230082040057e+01  6.6094381453527680e+00  -1.2295832166951893e+01  -5.0164051838364978e+00  5.0465095273990412e+00  -6.4553148607800424e+00  1.6816164832390157e+01  -1.5164520672575835e+01  3.9373495889728609e+00  1.1566176436084596e-01  2.0079175617619086e+01  -1.0178625379258104e+01  -1.5265260295545254e+01  -1.5613299050202510e+01  -3.1402178343583622e+00  0.0000000000000000e+00  -7.8839424939017064e+00  -1.8832057056016851e+01  1.2809651231891680e+01  0.0000000000000000e+00  1.7146614535864857e+00  -3.9335003675761442e+00  -4.1181424183582340e+00  7.4294850036192903e+00  5.8407350005626233e+00  6.0795704847785315e+00  -1.4279780298092435e+00  -1.0197348203783779e+01  4.7414326941334020e+00  1.3730888982800444e+01  -1.0399154444341098e+01  8.4804232536075457e+00  -1.3719461726407112e+00  -7.3351272139374570e+00  -9.1055503498122494e+00  8.2823690627757180e+00  -7.0570228134794089e-01  -5.3856623590168473e+00  -7.9911991375621145e+00  -1.4997224007725990e+01  -2.0155362328569453e+01  5.2586875927413681e+00  -2.7978009037049695e-01  3.5413821876949858e+00  -1.5981469587887909e+00  -4.0790332772776585e+00  1.0209408643125102e+00  6.3462652808495550e+00  -4.2723258631225119e-01  -1.7945012054292636e+01  -1.5485327176296449e+01  -1.4457686688703971e+01  -1.2015871185405519e+01  5.8817606020765145e-01  7.1893903330839910e+00  9.8787500830884163e+00  -1.0866665217674532e+01  -7.5466415406053722e+00  -2.1183163029586090e+01  -1.6238744315324269e+01  2.5760566128802953e+00  -1.3191600621795819e+01  -2.0749332706552757e+01  -5.1071113470704157e+00  9.6333975142371209e+00  1.2967059106121736e+01  7.3666879804703358e+00  2.6783269064967898e+00  -2.6299554376749281e+00  1.0129787683902897e+01  2.9433153796332863e+00  -1.7089257239166358e+00  1.2149466073417702e+01  -1.0024269813778554e+01  -7.3897070579886659e+00  -2.5718017794861838e+00  0.0000000000000000e+00  4.7844810797833282e-01  6.5137154676316233e-01  1.3531075720811369e+01  -7.4678097568541562e+00  -7.7924538107843393e+00  2.9400243320273862e+00  -2.0736362577004041e+01  -1.6219785705206220e+01  -9.6127810931344051e+00  -1.3355035962549481e+01  4.4821281780662936e+00  -2.0131407407709709e+01  4.2844144661234180e+00  -2.8746531586237611e-01  -2.0999062809536259e+01  9.3953245033207562e+00  -1.6481612559497648e+01  -1.4719469578260695e+01  -2.1949051192880027e+01  -6.2614206449805438e+00  3.5468588998117112e+00  4.9691503930186318e+00  5.6409995668282260e+00  0.0000000000000000e+00  2.6283013288767787e-01  -1.1589450343924449e+01  1.9209155668537874e+00  -2.0003734040452983e+00  -4.0903866242826918e+00  -5.7530630629663015e+00  1.5340779995241267e+01  1.2157764747242220e+01  1.6305368787252494e+01  1.1562095243041666e+01  1.8905991928546211e+00  5.1419723553293553e+00  -1.8794596875911513e+01  -1.8514589361547650e+01  1.7725768336577179e+01  -1.7376626968692912e+00  1.8891505007204596e+00  3.0333618706343226e+00  7.8675575508330855e+00  -1.8482257738637330e+01  -8.3839919793408839e+00  5.3644593651367884e+00  7.1397818619382081e+00  1.2800957898484822e+00  8.2342546445915954e-01  -1.6031485378272119e+00  2.5905377957308451e-01  -1.1205522730318089e+01  -1.2815852182417798e+01  9.6898539949766374e+00  1.6538223991402321e+00  6.4160264174338808e+00  -7.8237102961905860e+00  -1.0206858442961842e+01  -1.4416734162003792e+01  -7.0019326428678319e+00  -2.5680614130234587e+00  -5.4014660713623250e+00  -4.1436303125363194e+00  -8.6687810975300490e+00  -1.0904226429068462e+00  9.3549036096530251e+00  -1.9233321245351028e+01  -1.7836677297637134e+01  -1.2700359534035499e+01  1.6600928086782659e+01  9.7653984799422116e+00  -1.4926376580517595e+00  -5.6989931883070994e+00  -4.2583477101332825e+00  3.3712607419465548e+00  -1.5533081442888339e+01  9.7667794478229606e+00  1.3622811174708573e+01  -1.7130919600835455e+01  0.0000000000000000e+00  0.0000000000000000e+00  2.1856580061273738e+00  1.2499396267456466e+00  -6.0630883047000959e+00  -1.2607960203209453e+01  7.1620640225595764e+00  1.1200812921661669e+01  8.2132205832299547e+00  -2.8249193506030066e+00  -5.0694198603904539e+00  2.9119449455022690e+00  -5.6587540012550104e+00  7.0606132350872985e-01  0.0000000000000000e+00  -2.0056160610021831e+01  1.2909849295685968e+01  1.5576632383098291e+01  -1.0636010194093474e+01  1.6528983947718380e+01  1.8695927896982930e+01  -2.3115171469576403e+01  1.8607312333620786e+01  0.0000000000000000e+00  4.2426465128354556e+00  1.0183417965381109e+01  1.4874899304265927e+01  1.6367688169786870e+01  7.7809342819663998e+00  -4.4761827378381360e+00  -7.6555785802179122e+00  -1.6017632650297227e+00  -1.2358742940082607e+01  -8.6756776006366554e+00  4.3466203244286303e+00  -6.0960142584336818e+00  -1.4508587086985603e+01  1.0678322063114322e+01  -5.0390283539410845e+00  4.6967789477361771e-01  -2.0967131216553216e+01  1.2510811359013692e+00  -1.1511044044954616e+01  -1.0360095849510602e+01  -3.8190783903007781e+00  1.2869640732340089e+01  -6.8635953698364940e+00  1.4004548947140258e+01  3.6086630787017560e-01  2.8812388851509478e+00  7.4195711159263744e-01  -1.3972807909717773e+00  -3.0809760822403196e+00  5.3275485522097243e+00  3.3256387775632943e+00  -1.9098503525809715e+01  -1.0984259524143466e+01  9.5856419461424949e+00  -6.3954015396741530e+00  4.1952658962296976e+00  -1.4819513353141350e+01  -1.5799558887091273e+01  -3.7948541043729942e+00  -1.7895921589293209e+01  6.4756984966143856e+00  -1.2566374780635764e+01  -1.2107062778902760e+01  -1.6779012516365501e+01  5.5730273666505683e+00  -1.9042351213872966e+01  -5.9303419528555850e+00  -2.8435006145745296e+00  -2.2183867954464212e+01  -8.0632567624853824e+00  -4.9248940917041573e-01  -8.3902596788884249e+00  5.4357652377079768e+00  3.7799028960086010e+00  -1.4884655494859659e+01  1.8623673384793162e+00  1.0233916826702453e+01  -7.0725313640874745e+00  -4.3641457800577782e-01  9.2000347155268507e+00  5.5554326988590956e+00  6.6491200365639136e+00  -1.6675385843010098e+01  4.2672672125263722e-01  -3.4291681018273312e+00  -6.2828958464452116e+00  -6.7144931698775920e+00  -9.0308664095275191e+00  1.6285036804795463e+00  -4.8162639937675813e+00  5.2949157517148810e+00  -6.6796333233379652e+00  -4.6426420559476513e+00  -7.1415221451248811e-01  -1.3368569987266201e+00  1.4306919153120429e-01  -9.3105547243035893e+00  -7.8869646231124868e+00  5.2744816135876258e+00  2.8291851149101279e+00  1.2018055604788316e+01  1.1306206377571515e+00  4.5170761657342178e+00  -8.6494793526331837e-01  -8.6244647157456473e+00  -9.6062639515050527e+00  -1.2563276570300033e+01  -1.6043984228095518e+01  -2.4787568849072343e+00  -8.3660931155904059e+00  -2.9729751061670373e+00  -2.5735937638361106e+00  -1.7535078820517258e+00  -4.2621488202360798e+00  -3.3472054097962229e+00  -1.6101038285859254e+01  3.1631948545371582e+00  -1.1188200206586005e+01  -1.3564023289055354e+01  -1.3209548072441853e+01  -1.9486358418206298e+00  -2.3114821470897521e+01  -1.8224997941437961e+00  8.9505531008662054e+00  -1.0991157169750656e+01  -8.2189865565142171e+00  -5.5193403078853063e+00  1.1491758374875610e+01  1.4988850707176418e+01  7.4587783645701071e+00  3.8868487979224886e+00  1.2063372743406269e+01  -1.9875684630980778e+01  3.4660626459389027e-01  -3.1547430906784983e+00  1.2615428657235087e+01  -8.6657314876862497e+00  1.9589214196106510e+00  4.6318082455466980e+00  7.4861911288919796e+00  -1.4734693815196140e+00  -1.5472670517059528e-01  1.4957407314659211e+01  1.4621653542020367e+01  1.1110603067756299e+01  -3.2133657344406656e+00  -1.2597073919806514e+00  -7.3373452359678177e+00  1.5022886129347954e+01  7.4039889712201923e+00  4.3371417115759359e+00  -8.9539638359205291e+00  -2.8246958890922014e-01  1.2398240054045651e+00  2.8975262394592982e-01  3.6217268882545866e+00  -4.1240509371182510e+00  6.5808696546849657e+00  3.8768505872632320e+00  1.3616654318732278e+01  5.8643808514549134e-01  3.1708880548241924e+00  -1.2987679665953195e+01  -1.3373538220293586e+01  -1.3047748574187811e+01  7.9092914230322995e+00  -2.1118365974025828e+01  -2.0108685194782769e+01  -1.6890626859358854e+01  1.3183145540383137e+00  -1.3898405846985856e+01  -6.0742464474947289e+00  3.5408709053488820e+00  7.8672461944941912e+00  -1.7699452336876742e+01  -1.6048203434038292e+01  1.3798528662576114e+01  9.5645358997251364e+00  1.0942128855610960e+01  1.1189105647842036e+01  -5.4219077710409938e+00  2.7976810423067615e+00  1.1523253770614303e+01  -1.5920355777656848e+01  -1.6844480539521051e+01  3.2196643430375016e-01  -9.5103491706730026e+00  -1.4523000188457077e+01  -6.6992646633392050e-01  -6.9533029754229307e+00  -1.1045258813787852e+01  -9.9357499152529822e+00  -1.1767673140590366e+01  -9.2027556511900901e+00  -1.1629651718615595e+01  8.6830317147929819e+00  1.7709588529336919e+00  -1.9825635215799359e+01  1.3551383698263293e+00  2.2645171669195485e+00  -4.9438964125781570e+00  -4.0781868191134834e+00  -1.8996622463335843e+01  -2.1974737890819438e+00  -1.5253461447491643e+01  1.4963711298735129e+01  -1.9784982258872428e+00  -3.1681424010244936e+00  -9.2573450043303107e-01  -4.0676691668925598e+00  -6.0380547350653586e+00  -5.6181692361475344e+00  3.2723406920293197e-01  2.7805702086858144e+00  -2.1976540964794435e+01  -2.0252039084411749e+01  -1.1714142396109299e+01  8.0372935162427641e+00  -1.5926007785336328e+01  -1.3585682549255409e+01  8.4664004114549716e+00  4.9528152420670741e+00  -1.7280007264051132e+01  -2.0145971289721338e+01  -1.3853968583755425e+01  -1.3702264973040357e+01  3.5340100305585760e+00  1.9368406364706328e+00  8.2140085581013231e+00  -1.8861002235732983e+01  -2.0609066385734916e+01  -1.7667385028475284e+01  3.8466187139385526e+00  1.2873008385428946e+01  -9.0618032687375845e+00  -2.0814915713674904e+00  -1.1146709044319334e+01  -1.6863726969894369e+01  -2.2377340346630556e+00  -1.1482184142808462e+01  -9.3805475587415721e+00  -6.7054518693087442e+00  1.6601358167693270e+01  -1.6370012558331435e+01  -1.4253019834529789e+01  -1.6912459472286191e+01  -3.6474582656253784e+00  7.0769138335238670e+00  5.1432462071390912e+00  6.5821704744281391e+00  1.5238207131169489e+01  2.8222103523576982e+00  -1.5403042690511557e+01  1.1237893060370173e+01  8.2461836005972220e+00  1.0494240239066986e+01  7.6658712110317779e+00  -8.2470247120054392e+00  -1.1126522124776002e+01  -1.3546399193180866e+01  -1.1148879365456970e+01  -1.3090875702276465e+01  -1.0849325529841432e+01  -1.1958595583444209e+01  -1.2628606834950411e+01  -1.5199576588662401e+01  -1.9748672688133999e+00  1.8687231460231537e-04  -5.5034483673643528e+00  -4.4678557333299489e+00  3.8257426354241888e+00  5.9183733297243588e+00  -8.7083486131464571e+00  7.3579099783974025e+00  1.1458947131438846e+01  2.4894560797320531e+00  -8.5310187837810281e-01  -1.8859287020002995e+01  1.1143746031328959e+01  1.0353151350410547e+01  1.5201146255504581e+01  9.2316902732244444e+00  -1.9543081052441487e+01  -7.8429609686115942e+00  5.6117983032920140e+00  -1.8792669695268557e+01  7.6762992385360205e+00  -1.0312434913372229e+01  -4.8366402704970207e-01  -2.9848129855273258e+00  -3.2974311434263188e+00  -1.4205565958555805e+01  -2.0254091828837475e+00  9.2051496861320601e+00  6.1401688994589696e+00  -6.6527201684583073e+00  -5.7126147932091582e+00  -3.9832870003953791e+00  -2.6066342957253443e+00  -4.6939890367183246e+00  -2.7525017646139358e+00  9.9074903651041701e+00  -6.5052611873269903e+00  1.5449295666034205e+01  -1.6489362248920525e+01  -5.3269646073337029e-01  1.5531011823708247e+00  -6.5583401515591289e-01  -2.1022042167879640e+00  -1.1968715040114432e+01  7.6513413896564286e-01  -4.4788350729899644e+00  -6.3689693156739677e+00  -3.5368546238463092e+00  -6.2358968761202496e+00  -1.7445569365467403e+01  -9.8775935894495088e+00  -1.1630880685129002e+01  -1.0089852320814275e+01  -1.4265902187581423e+00  -5.7599335350934018e+00  4.4351934000311806e+00  3.6703090817152160e+00  5.6432562548707059e+00  1.2226295821012188e+01  -1.1399405425941106e+01  1.2199269054524613e+01  -1.9421276548221604e+00  1.3086757801643159e+01  1.0325976817790789e+01  2.0610194872795553e+00  -1.5698133218763662e+01  -1.7361653243228847e+01  6.6063361625205443e+00  7.6236592022291294e+00  3.1668538947906604e+00  5.0351679961699203e+00  -1.8119822204549074e+01  4.4122562524845907e+00  4.1032377494234655e+00  -1.5533693285853343e+00  -1.7299360733543004e+01  -4.7031700919510575e+00  4.6164767255937607e+00  -5.4155582767314669e+00  -6.6147531581796040e+00  3.0317624097160261e+00  1.4933491618297403e+01  -1.5517271152147256e+01  -1.4546265813139323e+01  2.7219098502905004e-01  -7.2019830474943181e+00  -7.9191784983256932e+00  6.5263040796690071e+00  7.8551169458620702e+00  -1.9678530531288756e+00  -9.9933840422991658e+00  -1.4375655053999157e+01  -1.1162659973713696e+01  -1.0551856271949536e+01  -2.4367546118681385e+00  -1.7687526063387693e+01  -2.3163174334560274e+01  -7.2589093299988443e+00  -9.5098142435230280e+00  -3.2169724660693486e+00  6.3165360662107006e-01  9.6652828699539004e+00  2.1730515969977828e+00  -1.4084657396826822e+01  -1.8452297944693260e+01  -7.4916801985912516e+00  -5.9611753340471418e+00  5.5326775699328365e+00  1.4357902343932032e+01  6.9994967951285991e+00  4.1106419728535375e+00  5.8578513470917573e+00  1.5241461121127026e+01  -2.0064113962722853e+01  -4.7174123573958271e+00  9.3542099472397151e+00  6.7965402638327310e+00  -3.8988540685656927e+00  1.5221441704310787e+00  -7.5340631252223798e+00  -9.6052837674978786e+00  -9.0146620653439147e+00  -1.9075921214580774e+01  -7.5000424666403882e+00  -9.5406464231923866e+00  -2.0451686828873655e+01  -1.1848221302938349e+01  1.4579979645040112e+01  -8.9223233886547071e+00  7.6770472393939153e+00  -9.1641916639015299e+00  2.2727480482670190e-01  -1.8273139633538953e+01  -2.0038372605761509e+01  -2.6929552930181679e+00  1.6102810916513416e+01  -6.8167539216032558e-01  1.4708418437307055e+01  5.3907281518993413e+00  1.8079237753872683e+00  1.2348233653323015e+00  -1.0107627238552335e+00  -9.1721594483342734e+00  2.6578105622312780e+00  2.1416708034224116e-01  8.8067856067755841e+00  -3.3033565513732319e+00  -1.4743772596927307e+01  9.0000487370008528e+00  -5.0880118107347752e+00  2.3719292934731100e+00  2.8477199639987480e+00  6.2114688375000338e+00  -7.5655212570957453e-01  -2.3364251048245959e+00  -1.4915974602799555e+00  -3.6739624519986229e+00  1.4592149749848204e+01  1.5861770298148375e+01  -1.5446624497914685e+01  -2.1307334722206200e+01  -8.5358859805076399e+00  8.6208723743312454e+00  7