<?xml version="1.0"?>
<VTKFile type="UnstructuredGrid"  version="0.1"  >
<UnstructuredGrid>
<Piece  NumberOfPoints="5089" NumberOfCells="9865">
<Points>
<DataArray  type="Float64"  NumberOfComponents="3"  format="ascii">0 1.5 0  0 0 0  0.1029058182573948 0 0  0.1029058182573948 0.02393156642875577 0  0.1251489251828899 0.06631226582407952 0  0.1645395112957465 0.09350162426854149 0  0.2120536680255323 0.0992708874098054 0  0.2568064746731156 0.08229838658936564 0  0.288545602565321 0.04647231720437685 0  0.3 0 0  0.51 0 0  0.5220577136594005 0.04499999999999999 0  0.555 0.07794228634059948 0  0.6 0.09 0  0.645 0.07794228634059946 0  0.6779422863405995 0.04499999999999999 0  0.6899999999999999 0 0  0.8924037639192813 0 0  0.8924037639192813 0.02287028598995353 0  0.9110081306187559 0.06465637775217206 0  0.9450000000000001 0.09526279441628825 0  0.9885018690405581 0.1093974084905101 0  1.033991869381244 0.1046162167924669 0  1.073604366699474 0.08174593080251337 0  1.100490000340686 0.04474103073833802 0  1.11 0 0  1.502905818257395 0 0  1.502905818257395 0.02393156642875577 0  1.52514892518289 0.06631226582407952 0  1.564539511295747 0.09350162426854149 0  1.612053668025532 0.0992708874098054 0  1.656806474673116 0.08229838658936564 0  1.688545602565321 0.04647231720437685 0  1.7 0 0  1.82324056211084 0 0  1.82324056211084 0.02253860454731437 0  1.847611141284377 0.06045996594834066 0  1.888614812938137 0.07918571535047463 0  1.933233201040151 0.07277055962836147 0  1.967300282626494 0.0432512653964478 0  1.98 0 0  2.202905818257395 0 0  2.202905818257395 0.02393156642875577 0  2.22514892518289 0.06631226582407952 0  2.264539511295746 0.09350162426854149 0  2.312053668025532 0.0992708874098054 0  2.356806474673115 0.08229838658936564 0  2.388545602565321 0.04647231720437685 0  2.4 0 0  2.51 0 0  2.522057713659401 0.04499999999999999 0  2.555 0.07794228634059948 0  2.6 0.09 0  2.645 0.07794228634059946 0  2.677942286340599 0.04499999999999999 0  2.69 0 0  3 0 0  3 1.5 0  0 0.75 0  1.5 1.5 0  0 0.375 0  0 0.1875 0  0.75 1.5 0  2.25 1.5 0  3 0.75 0  1.803364316093307 0.8194216192460635 0  0.7085714285714286 0.7914285714285714 0  2.396697907928333 0.698796196655595 0  1.26039230397729 0.6323879781298929 0  1.125 1.5 0  3 1.125 0  0.375 1.5 0  1.418284719659703 1.05567510076647 0  2.625 1.5 0  0 1.125 0  2.4375 1.120298797465005 0  0.4140309460188812 0.4815551607069073 0  0.9375 1.133540466589862 0  1.875 1.5 0  0.4143011358073044 1.085698864192695 0  2.042557228405723 0.4764057674039468 0  3 0.375 0  1.615235786026768 0.4839120951620492 0  0.9172436665953028 0.4786128535408891 0  2.136144598898015 0.9367443054342734 0  2.712089662802327 0.5625 0  1.752709466448716 1.168812671476193 0  2.696461986964791 0.9012929362807449 0  1.307422665144653 0.3094324321200764 0  2.0625 1.24476578117044 0  2.446405755792607 0.3860402512509704 0  0.3158723471199726 0.7836709721106835 0  1.018921994797561 0.831404696897531 0  1.521099871135537 0.7571953762650785 0  2.718190509848388 1.189592528269884 0  0.665307193508031 1.225469494285917 0  1.199897701782483 1.230481185797768 0  0.2233959957266646 1.276604004273335 0  0.6649397520368477 0.3607836886074089 0  0 0.5625 0  2.685543358160364 0.3192521589045413 0  1.775621962986754 0.2975552026784072 0  2.025654700292002 0.7195245521041802 0  0.1961827192748887 0.9897295638426992 0  1.25729921569077 0.8746334216075233 0  1.534142212444284 1.264044413891354 0  1.624439414641745 0.9597398592303362 0  2.117668421489377 0.2641528949307972 0  1.945094170902585 1.053880768096555 0  3 0.1875 0  0.6251639682912251 1.002291403912492 0  0.719601375969486 0.5727782913443102 0  0.2313942916225519 0.3335511938861402 0  0.4687668770508729 0.274248243200137 0  0.5143238740412669 0.6811446824633056 0  1.829350286632844 0.5059917594077202 0  1.082379929992235 0.3249418149194327 0  2.540679850598416 1.305492850437689 0  2.282283153018704 1.279796495628565 0  2.355666841619378 0.9154942188580675 0  0.2114722061938988 0.5448236655965607 0  3 1.3125 0  2.8125 1.5 0  2.263750685400308 0.5173381079832993 0  0.4343085727049624 1.296611441170993 0  1.6875 1.5 0  1.016037518489582 1.324553740130353 0  0.846292314151325 0.9469220663180872 0  1.122827752751251 1.035495517001457 0  1.3125 1.5 0  1.306452909128697 0 0  0.8906638629565067 0.6773217378320744 0  1.517175933126145 0.2981487507037606 0  0.7996957920902151 0.2224603600775558 0  1.446370464174038 0.5785990786868803 0  1.689965192988266 0.6625083927402473 0  0.4864273298880485 0.870473805626289 0  3 0.9375 0  2.831315819563651 1.036097903808422 0  1.106384347284952 0.5163011422226527 0  0.5625 1.5 0  0.9375 1.5 0  0.1875 1.5 0  2.0625 1.5 0  3 0.5625 0  0 0.9375 0  0 1.3125 0  2.4375 1.5 0  2.196044825237544 1.113880351688974 0  2.210431846521007 0.695834380790271 0  0.8262236946704767 1.326155809103077 0  2.523003751809735 0.8349453583788917 0  1.882533682486712 1.30904671408086 0  2.845 0 0  2.813607095438526 0.1837681344374856 0  2.298597604800397 0.280431891689246 0  1.972062138207083 0.8834951655964545 0  1.943392101370151 0.2475417334111557 0  2.828663592588797 0.4267055109367558 0  2.803791026183859 0.7364868569598708 0  2.523250359922468 0.5585816735541729 0  2.602935827188279 1.053310414780935 0  1.692458045540587 1.328962813001376 0  1.232271555781778 0.154950218767993 0  1.36985844680238 1.21899526865025 0  1.785321775315372 1.004919979330962 0  2.534633602602767 0.2439507161942105 0  0.7651985499724481 1.092302611968735 0  2.637828969450683 0.71279922663893 0  1.100469689258933 0.6843495375675052 0  1.315800235513153 0.4755545830105288 0  1.405546076805209 0.1782543944119986 0  2.826282129872177 1.326282129872177 0  0.575884497984488 0.4967904868667201 0  0.1516233666565383 0.826056857120972 0  0.3483704262380678 0.6272257636119053 0  1.568331672486121 1.108640197801574 0  1.475101554186818 0.9082985267599337 0  1.868470483419324 0.6670273102604994 0  0.3467545185571825 0.9433646607171683 0  2.15625 1.373787484318285 0  1.41742615593433 1.367603819494743 0  2.854904919456998 0.8828609574219635 0  0.9476741986655126 0.255395459587152 0  1.267450600339273 1.091056105706913 0  0.114311143675241 0.65625 0  0.65625 1.37859278398136 0  2.170651243108527 0.4023187025489676 0  1.21875 1.380886352874642 0  0.3798992233573569 0.1593768045411093 0  0.9831420651531181 0.9956358347774316 0  1.456186685150796 0.4319140716985383 0  2.586721317152155 0.4269308613840649 0  2.863979293145301 1.178604739864835 0  1.658646098314701 0.8045749301224775 0  1.383553643956373 0.7098158224076794 0  0.154006438477797 1.138458423126247 0  2.856044831401163 0.5977865618779903 0  0.553876003596687 1.130313370813194 0  2.680231675041409 1.360526450748891 0  2.486056782242186 0.9722817331473952 0  1.891212003911469 0.3789027676568836 0  0.8138227412155181 0.37102502168449 0  1.064674644221452 1.192903489156071 0  0.6045358160041144 0.2320910326486189 0  1.194008126159845 0.4081242368041457 0  2.138311355076408 0.5770795769918613 0  0.134142636330111 0.2313017261983794 0  0.8460209454012837 0.8084258449188535 0  0.1293517554287885 0.4305045409359897 0  0.3205820557512212 1.373790064297892 0  0.2928933613730453 1.155196229839076 0  2.404969940572298 1.358123451328196 0  0.9933877375830629 0.5899302104012978 0  2.090287791367255 0.1211621925433303 0  2.904889173308855 0.28125 0  0.1246766077328953 1.375323392267105 0  2.302041695038792 0.7931069109810627 0  2.389228836127323 0.5648368411465005 0  1.886839219693261 1.174850198523801 0  1.96875 1.5 0  2.005259577028834 1.368575570359887 0  2.58746882374347 1.183267841227943 0  1.646515580921743 0.3486369169127919 0  1.980147904783248 0.5942137934419368 0  2.07740167257538 1.055304717195479 0  1.57300338334685 0.6065157750282059 0  1.59375 1.5 0  1.679678032322464 0.2100937046526968 0  2.252673654577562 0.9960348417811178 0  2.17832845930892 0.8178435559778986 0  1.78125 1.5 0  2.021596890434516 0.349571947542988 0  1.79926971381977 0.1752587163176004 0  0.503878860142697 0.3943984894172995 0  1.146622573165596 0.8060813049917908 0  3 1.40625 0  2.649807995179342 0.2020005420916801 0  0.3438742656237004 0.2790576170649142 0  1.546875 1.386334759531577 0  3 0.09375 0  1.320989371181643 0.9800954309611291 0  1.270074893254929 0.7536540780084714 0  2.70770359261854 0.4387759707667409 0  0.5606072232931772 1.296106034499297 0  0.7858104720553775 1.211812834033452 0  2.317237622700128 1.09958886094401 0  2.518665098961854 0.68166123334458 0  1.747777558052355 0.4158756118164814 0  1.683029275145126 1.069756268641544 0  0.46875 1.5 0  2.407758410849746 0.2048845882413086 0  2.396684507181482 1.235853070423643 0  1.919569286509587 0.7755948020085885 0  2.290752654053557 0.4002939182457882 0  0.2367853577638227 0.6856443876677092 0  1.644821718344275 1.219632237269969 0  0 1.03125 0  0.5821665354391095 0.7878606619613046 0  0.6422016866915001 0.674771619551397 0  0.2917070890414653 0.4458139506278615 0  0.7912018819596407 0 0  0.1045102716700244 1.249819735557644 0  1.151091219660612 0.9224858968529193 0  2.719174284445647 1.071883664029489 0  0.7216906855953001 0.918545393630683 0  0.2528020696803429 0.8787006417214202 0  1.726437981314609 0.9055659975386789 0  1.466273966174817 1.158744006060248 0  0.500278661176367 0.9948136517426003 0  1.114706325735654 0.2023659607018325 0  1.193213601931895 0.2926984867334158 0  0.9725372994821596 0.3724679154862157 0  2.214714190066689 0.1991474088029779 0  2.411776451427861 0.8179674328277735 0  1.997105232295531 1.153439169094244 0  0.497834479014996 1.390464488336983 0  0.4532232073331143 0.5868543641678674 0  0.4094710929462204 0.7215160819073434 0  0.2730945637736263 0.1927345247561336 0  2.091452909128697 0 0  1.88727127931541 0.9574017932976476 0  0.7331675361580886 0.4562359341911597 0  0.808798696301996 0.1107204599928528 0  2.794056136375906 0.2935548935723623 0  2.172174128810919 1.263645408055929 0  2.266351953173893 1.389929090293708 0  0.9205129738298803 1.252177379624563 0  2.58760749
[...]
<PointData  Scalars="f_66"> 
<DataArray  type="Float64"  Name="f_66"  format="ascii">1.1598049992405000e+01  -2.9351914721408448e+01  -2.7652511071865465e+01  -2.7075469067304883e+01  -2.5458551359343630e+01  -2.4080255659726745e+01  -2.4866736288500178e+01  -2.6141928599630283e+01  -2.7362630915747157e+01  -2.9058338532657629e+01  -2.4960955362450697e+01  -2.4795544312106930e+01  -2.5285485422897874e+01  -2.5403947967397702e+01  -2.5041240625985445e+01  -2.4388909809490091e+01  -2.4532130331822071e+01  -2.6189666514346087e+01  -2.5335591848214534e+01  -2.4479389548075485e+01  -2.3324554950207901e+01  -2.1699528325414665e+01  -2.0773545246518484e+01  -2.1715496138471945e+01  -2.3472440721690475e+01  -2.4852786864165090e+01  -2.4131455587934514e+01  -2.3224133576820204e+01  -2.1953781613041908e+01  -2.0389763605248739e+01  -1.8881542001833768e+01  -1.8969393495126816e+01  -2.0661963151915131e+01  -2.1783272125682867e+01  -2.2911795014562486e+01  -2.1873468404434366e+01  -2.0145592202008419e+01  -1.8244680407507023e+01  -1.7163734574575820e+01  -1.8085484034253064e+01  -1.8940414374645975e+01  -1.8323840069776008e+01  -1.7703364387420027e+01  -1.6109682229655995e+01  -1.4314653669611330e+01  -1.4508423411197459e+01  -1.5287689497586403e+01  -1.6017595652294645e+01  -1.7424902682897780e+01  -1.4909940903900784e+01  -1.3761559301865717e+01  -1.1872824220847928e+01  -1.0920390719904958e+01  -1.0972425527357011e+01  -1.0763200790883705e+01  -1.1786079784282245e+01  0.0000000000000000e+00  0.0000000000000000e+00  -9.6009702137592736e+00  1.5440986712326930e+01  -1.9301617241378430e+01  -2.3848375436867887e+01  1.0651345476979516e+01  1.2593633861445111e+01  0.0000000000000000e+00  -2.1018973217776793e+00  -6.2577082211634698e+00  -2.5600455533547497e+00  -8.3628362766069309e+00  1.2986464310273973e+01  0.0000000000000000e+00  1.0968189407888168e+01  2.3998526723870168e+00  1.1389406085067501e+01  3.6046523185302254e-01  4.5946448178967039e+00  -1.5095348693885295e+01  3.0038015558168665e+00  1.4319181810029329e+01  3.3247826107403355e-01  -8.6436930388707900e+00  0.0000000000000000e+00  -1.0583635962881392e+01  -1.3406606654523410e+01  1.2172603974953951e+00  -2.6241672908259162e+00  5.8521240879183214e+00  7.6617483601749392e-01  -1.6118462519837905e+01  7.8699686467090766e+00  -7.5987116411664362e+00  -7.6888160416036246e+00  -4.2693232180858232e+00  -4.4533511819366485e+00  3.9578086648558215e+00  4.5513547984317242e+00  6.1301880760956591e+00  4.7115363069737883e+00  -1.7343578752545628e+01  -1.4535211243778052e+01  -5.7873641871625106e+00  -1.4220032546708337e+01  -3.5521104492366806e+00  -2.7253203328686113e+00  -2.4542524156689693e+00  7.7634487556077252e+00  6.5372400960370525e-01  -1.2796617959050122e+01  3.4904700291244737e+00  0.0000000000000000e+00  -1.1909965887922160e+00  -1.1745215480373272e+01  -1.9455892670735643e+01  -2.0225538686453536e+01  -9.6888452085679475e+00  -9.1012829379285662e+00  -1.6579679600752883e+01  7.5644902296133933e+00  8.3342484989551906e+00  1.0774059253185393e+00  -1.4180810717996652e+01  0.0000000000000000e+00  7.1083289144612660e+00  -6.5056997306017950e+00  5.7203138132253750e+00  1.3113337942650469e+01  7.9726433131281551e+00  -1.9392817062763210e+00  1.0826839811131235e+00  1.2342291636349289e+01  -2.2722168653083344e+01  -8.5330677697258537e+00  -1.5523208885310934e+01  -2.0320305766144553e+01  -8.9990685816077676e+00  -6.0799112975918579e+00  -4.9540252008859094e+00  0.0000000000000000e+00  1.4300409934244029e+00  -1.1778789290565522e+01  1.2572801585398468e+01  1.3591117187441780e+01  9.5404832777921573e+00  1.5434553683374277e+01  0.0000000000000000e+00  -4.6174949013204660e+00  5.3143692787504841e+00  1.4303298700312725e+01  4.9122804309048052e+00  -3.3648339701633394e+00  7.5014363387932379e+00  -1.0505074711742356e-01  9.3521734221338839e+00  -6.2376356051515911e+00  -5.3390980646802131e+00  -1.0978922142479680e+01  -2.0943382200797600e-01  -1.4345865597555994e+01  -2.6280672376027381e+00  -6.3984619919344699e-01  -4.0892597705059224e+00  2.9566055853858648e+00  9.5975362842769112e+00  -2.0274382003674567e+01  6.2643376307768861e+00  2.0871071421509004e+00  -9.1729594268891628e+00  1.4696937005252202e+00  -1.3305374128243523e+00  -7.6490673495023032e+00  -1.1995098282607165e+01  -1.9033583664554676e+01  4.2578352835894018e+00  -1.4179967272394684e+01  -7.1108281782184797e+00  -1.1592883668019976e+01  4.0623766259618401e+00  -9.9155866271598314e-01  -5.3058136013367818e+00  -3.4904238947147710e+00  1.0856017496577982e+01  1.0044334468097327e+01  3.9208073438459451e-01  -1.8851912851286706e+01  2.8753524702163191e+00  -1.1654571361853053e+01  8.4529514331799209e+00  -9.4562310797306051e+00  1.0090309423815198e+01  -2.3404545154345858e+01  -2.9601084219279122e-01  -1.2513069070467591e+01  -5.4145484938958459e+00  2.2478922497296603e+00  -2.8858664518437385e+00  -6.0560621837174748e+00  1.0274322253259507e+00  -1.1642602539035161e+00  1.8284106922638135e+00  7.3786777833164221e+00  1.9513357533827966e+00  -1.1682448878916983e+01  -1.6504505249335683e+01  4.8233581411780992e+00  -2.0919360583797577e+01  -1.4116773092522431e+01  -6.0499698592341904e+00  -2.2185270159808709e+01  -5.4045787695367711e+00  -1.7373982040251523e+01  7.5526950107752349e+00  1.7868927415029150e+00  9.7175185118783478e+00  -1.0352709846090196e+01  -1.6312088998563723e+01  -2.2999294592629944e+00  6.9951228377355834e+00  -1.1967054185979031e+00  -4.8666228999616790e+00  6.1822658604112979e+00  1.3075775718765028e+01  1.0779538747326443e+01  5.0230646304626019e+00  -1.3662090269761443e+01  -6.4190883330796362e+00  3.6605721154522914e+00  -7.8458057424038419e+00  1.3449588528406178e+01  -1.6751795663804778e+01  2.5263424707255635e+00  -1.0955333360494235e+00  1.5727138490365929e+01  -1.1541767586096610e+01  -1.7056719761490939e+01  -1.7043151220489893e+01  -4.4966106310759111e+00  0.0000000000000000e+00  -8.1724140326147818e+00  -2.0472153265982691e+01  1.0917815320462330e+01  0.0000000000000000e+00  3.0724433728353268e-01  -5.3673428282294662e+00  -4.0057448053261338e+00  6.0488122564100868e+00  4.5175165712236067e+00  4.5265303849296208e+00  -2.3209523159854433e+00  -1.1571007981950297e+01  3.3831678755572003e+00  9.9989542546085985e+00  -1.1576084749725741e+01  7.0128618317849165e+00  -2.7183527615374379e+00  -8.5984570023973994e+00  -1.0476396217940408e+01  6.8835658517547804e+00  -2.1169940757675549e+00  -6.7559263009044939e+00  -9.4228743809028668e+00  -1.6417794637718345e+01  -2.4493127680541388e+01  3.8038474907980433e+00  -1.6181674909935433e+00  2.4925933970689549e+00  -3.0154372925438908e+00  -5.4390479804466629e+00  -3.4509007058150343e-01  5.0237910844319229e+00  -1.7533871437188484e+00  -1.9409331068125447e+01  -1.6965811719517056e+01  -1.5842808654150373e+01  -1.3402907494154222e+01  -5.5401637652122926e-01  5.7807990594914385e+00  8.2206748703552144e+00  -1.2285362517047638e+01  -8.9831637080245503e+00  -2.2854347938092261e+01  -2.0279546553796230e+01  1.2225226797262403e+00  -1.4651979498236447e+01  -2.2990145350558169e+01  -4.4491503833748904e+00  8.2013807711747386e+00  1.0836070373118050e+01  5.9246742922697635e+00  1.2346669306864901e+00  -4.0234693805905719e+00  8.5939339230450731e+00  1.5659290624428435e+00  -3.0807302844532862e+00  1.0074128682951971e+01  -1.1419682716657059e+01  -8.7896020868741545e+00  -3.9492393899663076e+00  0.0000000000000000e+00  -9.2737540679975650e-01  -7.2462789737689848e-01  1.1324803960419088e+01  -8.7993841588875448e+00  -9.1870019553919011e+00  1.4894701253690108e+00  -2.2591872702944276e+01  -1.7775229005131397e+01  -1.1052436973954345e+01  -1.4811398136256358e+01  3.0356989592715102e+00  -2.1956862814385406e+01  2.8844761320351968e+00  -1.6814045552276111e+00  -2.5291746514141650e+01  8.0530527080848096e+00  -1.8254837075539506e+01  -1.6326281026011756e+01  -2.6091002251207566e+01  -7.7091757414217934e+00  2.1452039093078286e+00  3.6571421299338027e+00  4.7210067055906251e+00  0.0000000000000000e+00  -3.2675308548459231e-01  -1.2978080987475682e+01  5.5394325359264440e-01  -3.4191203755757664e+00  -3.4124179524271061e+00  -7.1063106586231033e+00  1.1474884771889595e+01  1.0137920446570494e+01  1.2667752457788964e+01  9.5087587499734454e+00  4.9056614218731170e-01  3.8299221761209195e+00  -2.2723327359809034e+01  -2.0967660176785504e+01  1.4133171458724933e+01  -3.1323500931063566e+00  5.0433885101323417e-01  1.6083009805133031e+00  6.1443573006296166e+00  -1.9993087486925322e+01  -8.0314501704424774e+00  3.9871051876073418e+00  5.9178353641411858e+00  -1.0288565515773297e-01  7.1180401488741163e-02  -1.5204356531363881e+00  -2.2952437659226005e-01  -1.2541345428083003e+01  -1.4206126594941450e+01  7.9746619888399417e+00  7.2321970688677750e-01  4.9551010829416047e+00  -9.2232743857112709e+00  -1.1587178372521517e+01  -1.6001681259062860e+01  -8.4171324826120149e+00  -3.9482298778140290e+00  -6.7810218101068314e+00  -5.5313417481045617e+00  -1.0064067261579503e+01  -1.0030348658180182e+00  7.9257158225278372e+00  -2.1136472108375742e+01  -1.9391023227273113e+01  -1.4214639261849712e+01  1.1725048731110215e+01  6.8819762178725066e+00  -2.6335139233826554e+00  -6.7913485295328959e+00  -5.6961359327576240e+00  2.8114952059915050e+00  -1.6965697765134198e+01  8.3587452030841387e+00  1.1687291793614161e+01  -1.8595638726583903e+01  0.0000000000000000e+00  0.0000000000000000e+00  1.2725140056031075e+00  9.5333275672689555e-01  -6.9516347065353132e+00  -1.4065055348125510e+01  5.7835215586968713e+00  9.0700452019845397e+00  6.7075107894214074e+00  -3.7641699776664561e+00  -5.7838870764758825e+00  2.4341866115086277e+00  -7.1025810526665891e+00  -7.0105573243679542e-01  0.0000000000000000e+00  -2.1628236537761538e+01  9.8125164195389853e+00  1.2185462265479552e+01  -1.2072756402137912e+01  1.3023370500626640e+01  1.4677454524416234e+01  -2.6111149190540438e+01  1.4623760523971523e+01  0.0000000000000000e+00  2.8310299543761026e+00  7.9064003988516056e+00  1.1062456095047875e+01  1.2262966908759026e+01  6.2986285322001789e+00  -5.9115348445903892e+00  -6.1747530925056271e+00  -2.8586903899931428e+00  -1.3786640961013633e+01  -9.6716320363047679e+00  3.0524650006053111e+00  -7.4515445829503131e+00  -1.5869609275046772e+01  8.6948538824243222e+00  -6.4291588958713284e+00  -8.9303101623587844e-01  -2.4091532396188157e+01  -8.0012030180848959e-02  -1.2715076612744975e+01  -1.1519346914562464e+01  -5.1896752478454031e+00  1.0793561733951696e+01  -5.0411533871711303e+00  1.1542867121647502e+01  -9.7580335118067263e-01  2.5545321031057839e+00  -6.7916264160234174e-01  -1.2914932500663188e+00  -2.7190871595454449e+00  4.0937402383499570e+00  1.8041632764768738e+00  -2.1259889362671693e+01  -1.2411581410712826e+01  7.7975054557730106e+00  -7.5457826872847846e+00  2.8871851326882654e+00  -1.6453529375185884e+01  -1.7267936481483890e+01  -5.0106642222517666e+00  -1.9772256730803800e+01  5.2027753366460043e+00  -1.3828132908418993e+01  -1.3444015944590609e+01  -1.8540611524153221e+01  4.8820109285665065e+00  -2.1296649984689207e+01  -7.2309402253533825e+00  -3.6167152839147274e+00  -2.4189726682764242e+01  -9.4495216153818031e+00  -1.3440084829141201e+00  -9.7947769726314213e+00  3.7394359196086144e+00  3.5270678688721602e+00  -1.6322158737129921e+01  7.9423213013888183e-01  8.7469679719591884e+00  -6.3700100156271251e+00  -1.8683164021289131e+00  7.8816492204327835e+00  4.2269936901449370e+00  5.2055001663563809e+00  -1.8783869576783925e+01  -9.2457339228953750e-01  -4.8020872432240402e+00  -7.6413337308095404e+00  -8.1280631361830604e+00  -1.0387939694899481e+01  2.7827189355448279e-01  -4.2565884467981476e+00  3.9342043219993412e+00  -8.0724384517986962e+00  -6.0449531743266718e+00  -1.0813869652977741e+00  -1.9824417782406625e+00  -1.0363073901637179e+00  -1.0004259276415215e+01  -8.6958715648375975e+00  3.9318952833439940e+00  1.4678037208695764e+00  9.8912143121414484e+00  -1.8737280564573400e-01  3.0917506370389498e+00  -2.3006908113712501e+00  -1.0077661490335228e+01  -1.1030074311295333e+01  -1.4092465116060247e+01  -1.7836109552235779e+01  -3.8221130663731682e+00  -9.6590761057427930e+00  -4.3411053755267135e+00  -3.9072414262483206e+00  -3.1073962804764093e+00  -5.6662582457202983e+00  -2.7668546148598496e+00  -1.7449856492081580e+01  1.7319045424358652e+00  -1.2628254074149382e+01  -1.4970552149648267e+01  -1.4667228891310744e+01  -3.3486229979941817e+00  -2.5588774432691579e+01  -3.1796655685754485e+00  7.5693659898532015e+00  -1.2379605920227457e+01  -9.6518420241487579e+00  -6.8841132325765555e+00  9.8716586126796226e+00  1.2256604633427793e+01  6.0303572638202239e+00  2.4865080169758533e+00  9.4710903320570079e+00  -2.2368735615291389e+01  -1.0379518981780624e+00  -4.3589963555796745e+00  1.0403778141284239e+01  -9.9508177982117605e+00  6.3119587576316138e-01  3.2804977507202215e+00  5.9515609848097171e+00  -2.8416503712688255e+00  -1.5940863752272232e+00  1.2490518733953806e+01  1.2117502827010151e+01  9.5421358826397711e+00  -4.6572263222932238e+00  -2.6755773017599451e+00  -8.4379829738914349e+00  1.2218656753105201e+01  5.9449744919552003e+00  3.2091840517102015e+00  -1.0381083576465434e+01  -4.6115299356797490e-01  3.5643439392223364e-01  -7.1085671793921112e-02  2.2353716397787693e+00  -5.4944513953630825e+00  5.2249367518161556e+00  2.5634116992511542e+00  1.1423829883361865e+01  3.1978017649175261e-01  1.8317732241924916e+00  -1.4474773767383056e+01  -1.4824247674365973e+01  -1.4477081157746330e+01  6.4130160671655387e+00  -2.3225793566048697e+01  -2.1456334480585863e+01  -1.8339801780408667e+01  -7.1051318116180845e-02  -1.5334692171014066e+01  -6.9211453424784519e+00  2.1772184703307786e+00  6.4937861789951414e+00  -1.9294896672880750e+01  -1.7388536264240827e+01  1.1205623504573252e+01  8.0564197466250711e+00  9.3454351600232481e+00  9.6049794592347322e+00  -6.7944257010332487e+00  1.3937546300639685e+00  9.3822118025044272e+00  -1.7429894869922663e+01  -1.8405049875014679e+01  -1.0383150483912025e+00  -1.0903756172791281e+01  -1.7566971436555516e+01  -8.8451797330792781e-01  -8.1582102927188878e+00  -1.2354036045195485e+01  -1.1102782033736599e+01  -1.3174468444333478e+01  -1.0637590132856358e+01  -1.3082967543897311e+01  7.3612600552022593e+00  3.9620825337835480e-01  -2.3685325223145377e+01  2.2763877266480156e-02  1.2815115052405033e+00  -5.5089123966235745e+00  -4.9840629618017953e+00  -2.0432136557542570e+01  -1.9861233072987690e+00  -1.7363641562663318e+01  1.1448193731523730e+01  -3.3677137521622904e+00  -4.5577926801367070e+00  -2.2986281401996322e+00  -5.4337705718411229e+00  -7.4175778179686596e+00  -7.0462196307187259e+00  -1.0771046786239364e+00  1.3352451417937603e+00  -2.4431164163275156e+01  -2.2072097141298535e+01  -1.3088815337274793e+01  6.6715793865360782e+00  -1.7604622701964349e+01  -1.5516042318988394e+01  7.0047505319098020e+00  3.5916200959524720e+00  -1.8848769456914262e+01  -2.1717731355455538e+01  -1.5379903671494731e+01  -1.5100097394734579e+01  2.2149008350871160e+00  9.1312039066844330e-01  6.8211291606377920e+00  -2.0345307701554400e+01  -2.2781410977280466e+01  -1.9201096658978383e+01  3.1222223529905486e+00  1.0091392299750574e+01  -1.0474058050151090e+01  -1.4198395454024804e+00  -1.2570395433812884e+01  -1.8320601423576722e+01  -3.2293538574202270e+00  -1.2784303094647878e+01  -1.0668470964427422e+01  -7.2548835029925876e+00  1.3287574445429010e+01  -1.7878530335345001e+01  -1.5658063496137450e+01  -1.8449646777098284e+01  -3.3519934735194545e+00  5.7630928645273620e+00  3.7053696651643815e+00  5.2876715782396859e+00  1.2713308038281641e+01  1.3746295805678779e+00  -1.7061147961757534e+01  8.4613999448541755e+00  6.5636436862069996e+00  8.3604793047211601e+00  6.2350971836551787e+00  -9.6252880053013055e+00  -1.2545285731832104e+01  -1.4922500062596624e+01  -1.2619914998715878e+01  -1.4435347827387082e+01  -1.2221755041907471e+01  -1.3330120053630543e+01  -1.4050027100913152e+01  -1.6699171960090652e+01  -1.9124394694917206e+00  -1.4123003635982316e+00  -6.8833179078273430e+00  -5.8818880247047698e+00  2.2812179569859259e+00  4.5193154784220200e+00  -9.8894413510558312e+00  5.9006731035957980e+00  9.1596618834971757e+00  1.6493816882347891e+00  -2.2394698693762556e+00  -2.2713775928648115e+01  9.5952612490763709e+00  8.7937235209557798e+00  1.1749499253241774e+01  7.7014547879340922e+00  -2.3222133631811076e+01  -8.3606112954777867e+00  4.2352288440074641e+00  -2.0462861666113994e+01  6.0209954733556525e+00  -1.1756599121640040e+01  -1.8332562119104978e+00  -4.3459691279533770e+00  -4.7025635093097771e+00  -1.5530432631402016e+01  -3.3500288864481713e+00  7.7675079648448788e+00  4.7458074648985278e+00  -8.0908852476196831e+00  -7.1474290470064439e+00  -4.7275111127841507e+00  -3.6984653196852144e+00  -5.9924195838730920e+00  -4.1621187276698937e+00  8.5126806818374483e+00  -7.7551308737095610e+00  1.2290155230955870e+01  -1.7807154151653688e+01  -1.9316319988431758e+00  5.1315619687119923e-02  -1.9473707749348379e+00  -1.5344859910356792e+00  -1.4472025777118150e+01  -6.6529213839646562e-01  -5.8166787202677996e+00  -7.7745146390841056e+00  -4.9595768318455065e+00  -7.6282899723769670e+00  -1.8871616368539293e+01  -1.0851450503933357e+01  -1.3262780450849805e+01  -1.1222046763231566e+01  -2.8037700288738345e+00  -7.1789733168077117e+00  3.0101624900816151e+00  2.3131387564956598e+00  4.3059206891488637e+00  9.3099741128091082e+00  -1.2869952244757616e+01  9.1210364597707247e+00  -3.3632009443976814e+00  1.0115242901478886e+01  8.9180862840537944e+00  6.9159434333455261e-01  -1.7982375732614823e+01  -2.0346365840579256e+01  4.8841137899278166e+00  6.2291374299010229e+00  1.8881881858074467e+00  3.6776181944445594e+00  -2.1616023258728486e+01  2.9801782045895684e+00  2.7349229065803291e+00  -2.9939060723380471e+00  -1.8756925058524651e+01  -6.0681624376544638e+00  3.2922315729843916e+00  -6.8043682514486372e+00  -7.9770608082959713e+00  1.7579964374425769e+00  1.1516905128598488e+01  -1.8052556073641401e+01  -1.5997441431401604e+01  -6.7387767168947743e-01  -8.5910844834683591e+00  -9.3040820828469002e+00  5.1586269883371001e+00  6.3427947771839959e+00  -2.8086313506381608e+00  -1.1388457088731753e+01  -1.5741105050966695e+01  -1.2618488808658892e+01  -1.1845446034951266e+01  -3.7859838374374379e+00  -1.9626310046418933e+01  -2.6274284057300395e+01  -8.6305964841421723e+00  -1.0953043279284632e+01  -4.6292243749532460e+00  -7.1718312394698058e-01  8.1462510152637471e+00  1.8234238875124118e+00  -1.5572584771855844e+01  -2.0701604024124361e+01  -8.9218196085823287e+00  -7.2673199938517064e+00  3.9278608311912264e+00  1.0992702853863605e+01  5.4514841446500091e+00  2.7298362419631403e+00  4.4459082497198068e+00  1.2097498105807734e+01  -2.2680008000692617e+01  -6.0509870016960985e+00  7.6390139883291921e+00  5.4702073852436470e+00  -5.2383867513922064e+00  2.8514167119282385e-01  -8.9126182439680992e+00  -1.0989424834341182e+01  -1.0414771513838915e+01  -2.0487056913439140e+01  -8.9459668487471831e+00  -1.0946528128836754e+01  -2.4979449148627658e+01  -1.3304389043472380e+01  1.1863299850604633e+01  -1.0214567108431707e+01  6.2931825480692805e+00  -1.0094105353837959e+01  -1.1067629328339081e+00  -1.9903812371714096e+01  -2.1748238967278720e+01  -4.0366613242133331e+00  1.2832558029795855e+01  -2.0225524479165804e+00  1.1273223265334209e+01  3.9811749639617449e+00  7.9282496347467757e-01  7.7260068315554664e-01  -2.3373940370005757e+00  -9.0811947119307703e+00  1.3532746433886873e+00  -2.9199796562556585e-01  7.3961805317339326e+00  -3.2653781363202889e+00  -1.6229391975426822e+01  7.5451008837142943e+00  -6.2531707917688966e+00  1.0261588780398092e+00  1.4159412978561781e+00  4.7797187024775534e+00  -1.9399063507412670e+00  -3.2040641068920181e+00  -2.3264860800217670e+00  -4.3315488877671777e+00  1.2183141550045685e+01  1.2673792391735695e+01  -1.7115927629855996e+01  -2.3550241335866566e+01  -9.96328276814939