<?xml version="1.0"?>
<VTKFile type="UnstructuredGrid"  version="0.1"  >
<UnstructuredGrid>
<Piece  NumberOfPoints="5089" NumberOfCells="9865">
<Points>
<DataArray  type="Float64"  NumberOfComponents="3"  format="ascii">0 1.5 0  0 0 0  0.1029058182573948 0 0  0.1029058182573948 0.02393156642875577 0  0.1251489251828899 0.06631226582407952 0  0.1645395112957465 0.09350162426854149 0  0.2120536680255323 0.0992708874098054 0  0.2568064746731156 0.08229838658936564 0  0.288545602565321 0.04647231720437685 0  0.3 0 0  0.51 0 0  0.5220577136594005 0.04499999999999999 0  0.555 0.07794228634059948 0  0.6 0.09 0  0.645 0.07794228634059946 0  0.6779422863405995 0.04499999999999999 0  0.6899999999999999 0 0  0.8924037639192813 0 0  0.8924037639192813 0.02287028598995353 0  0.9110081306187559 0.06465637775217206 0  0.9450000000000001 0.09526279441628825 0  0.9885018690405581 0.1093974084905101 0  1.033991869381244 0.1046162167924669 0  1.073604366699474 0.08174593080251337 0  1.100490000340686 0.04474103073833802 0  1.11 0 0  1.502905818257395 0 0  1.502905818257395 0.02393156642875577 0  1.52514892518289 0.06631226582407952 0  1.564539511295747 0.09350162426854149 0  1.612053668025532 0.0992708874098054 0  1.656806474673116 0.08229838658936564 0  1.688545602565321 0.04647231720437685 0  1.7 0 0  1.82324056211084 0 0  1.82324056211084 0.02253860454731437 0  1.847611141284377 0.06045996594834066 0  1.888614812938137 0.07918571535047463 0  1.933233201040151 0.07277055962836147 0  1.967300282626494 0.0432512653964478 0  1.98 0 0  2.202905818257395 0 0  2.202905818257395 0.02393156642875577 0  2.22514892518289 0.06631226582407952 0  2.264539511295746 0.09350162426854149 0  2.312053668025532 0.0992708874098054 0  2.356806474673115 0.08229838658936564 0  2.388545602565321 0.04647231720437685 0  2.4 0 0  2.51 0 0  2.522057713659401 0.04499999999999999 0  2.555 0.07794228634059948 0  2.6 0.09 0  2.645 0.07794228634059946 0  2.677942286340599 0.04499999999999999 0  2.69 0 0  3 0 0  3 1.5 0  0 0.75 0  1.5 1.5 0  0 0.375 0  0 0.1875 0  0.75 1.5 0  2.25 1.5 0  3 0.75 0  1.803364316093307 0.8194216192460635 0  0.7085714285714286 0.7914285714285714 0  2.396697907928333 0.698796196655595 0  1.26039230397729 0.6323879781298929 0  1.125 1.5 0  3 1.125 0  0.375 1.5 0  1.418284719659703 1.05567510076647 0  2.625 1.5 0  0 1.125 0  2.4375 1.120298797465005 0  0.4140309460188812 0.4815551607069073 0  0.9375 1.133540466589862 0  1.875 1.5 0  0.4143011358073044 1.085698864192695 0  2.042557228405723 0.4764057674039468 0  3 0.375 0  1.615235786026768 0.4839120951620492 0  0.9172436665953028 0.4786128535408891 0  2.136144598898015 0.9367443054342734 0  2.712089662802327 0.5625 0  1.752709466448716 1.168812671476193 0  2.696461986964791 0.9012929362807449 0  1.307422665144653 0.3094324321200764 0  2.0625 1.24476578117044 0  2.446405755792607 0.3860402512509704 0  0.3158723471199726 0.7836709721106835 0  1.018921994797561 0.831404696897531 0  1.521099871135537 0.7571953762650785 0  2.718190509848388 1.189592528269884 0  0.665307193508031 1.225469494285917 0  1.199897701782483 1.230481185797768 0  0.2233959957266646 1.276604004273335 0  0.6649397520368477 0.3607836886074089 0  0 0.5625 0  2.685543358160364 0.3192521589045413 0  1.775621962986754 0.2975552026784072 0  2.025654700292002 0.7195245521041802 0  0.1961827192748887 0.9897295638426992 0  1.25729921569077 0.8746334216075233 0  1.534142212444284 1.264044413891354 0  1.624439414641745 0.9597398592303362 0  2.117668421489377 0.2641528949307972 0  1.945094170902585 1.053880768096555 0  3 0.1875 0  0.6251639682912251 1.002291403912492 0  0.719601375969486 0.5727782913443102 0  0.2313942916225519 0.3335511938861402 0  0.4687668770508729 0.274248243200137 0  0.5143238740412669 0.6811446824633056 0  1.829350286632844 0.5059917594077202 0  1.082379929992235 0.3249418149194327 0  2.540679850598416 1.305492850437689 0  2.282283153018704 1.279796495628565 0  2.355666841619378 0.9154942188580675 0  0.2114722061938988 0.5448236655965607 0  3 1.3125 0  2.8125 1.5 0  2.263750685400308 0.5173381079832993 0  0.4343085727049624 1.296611441170993 0  1.6875 1.5 0  1.016037518489582 1.324553740130353 0  0.846292314151325 0.9469220663180872 0  1.122827752751251 1.035495517001457 0  1.3125 1.5 0  1.306452909128697 0 0  0.8906638629565067 0.6773217378320744 0  1.517175933126145 0.2981487507037606 0  0.7996957920902151 0.2224603600775558 0  1.446370464174038 0.5785990786868803 0  1.689965192988266 0.6625083927402473 0  0.4864273298880485 0.870473805626289 0  3 0.9375 0  2.831315819563651 1.036097903808422 0  1.106384347284952 0.5163011422226527 0  0.5625 1.5 0  0.9375 1.5 0  0.1875 1.5 0  2.0625 1.5 0  3 0.5625 0  0 0.9375 0  0 1.3125 0  2.4375 1.5 0  2.196044825237544 1.113880351688974 0  2.210431846521007 0.695834380790271 0  0.8262236946704767 1.326155809103077 0  2.523003751809735 0.8349453583788917 0  1.882533682486712 1.30904671408086 0  2.845 0 0  2.813607095438526 0.1837681344374856 0  2.298597604800397 0.280431891689246 0  1.972062138207083 0.8834951655964545 0  1.943392101370151 0.2475417334111557 0  2.828663592588797 0.4267055109367558 0  2.803791026183859 0.7364868569598708 0  2.523250359922468 0.5585816735541729 0  2.602935827188279 1.053310414780935 0  1.692458045540587 1.328962813001376 0  1.232271555781778 0.154950218767993 0  1.36985844680238 1.21899526865025 0  1.785321775315372 1.004919979330962 0  2.534633602602767 0.2439507161942105 0  0.7651985499724481 1.092302611968735 0  2.637828969450683 0.71279922663893 0  1.100469689258933 0.6843495375675052 0  1.315800235513153 0.4755545830105288 0  1.405546076805209 0.1782543944119986 0  2.826282129872177 1.326282129872177 0  0.575884497984488 0.4967904868667201 0  0.1516233666565383 0.826056857120972 0  0.3483704262380678 0.6272257636119053 0  1.568331672486121 1.108640197801574 0  1.475101554186818 0.9082985267599337 0  1.868470483419324 0.6670273102604994 0  0.3467545185571825 0.9433646607171683 0  2.15625 1.373787484318285 0  1.41742615593433 1.367603819494743 0  2.854904919456998 0.8828609574219635 0  0.9476741986655126 0.255395459587152 0  1.267450600339273 1.091056105706913 0  0.114311143675241 0.65625 0  0.65625 1.37859278398136 0  2.170651243108527 0.4023187025489676 0  1.21875 1.380886352874642 0  0.3798992233573569 0.1593768045411093 0  0.9831420651531181 0.9956358347774316 0  1.456186685150796 0.4319140716985383 0  2.586721317152155 0.4269308613840649 0  2.863979293145301 1.178604739864835 0  1.658646098314701 0.8045749301224775 0  1.383553643956373 0.7098158224076794 0  0.154006438477797 1.138458423126247 0  2.856044831401163 0.5977865618779903 0  0.553876003596687 1.130313370813194 0  2.680231675041409 1.360526450748891 0  2.486056782242186 0.9722817331473952 0  1.891212003911469 0.3789027676568836 0  0.8138227412155181 0.37102502168449 0  1.064674644221452 1.192903489156071 0  0.6045358160041144 0.2320910326486189 0  1.194008126159845 0.4081242368041457 0  2.138311355076408 0.5770795769918613 0  0.134142636330111 0.2313017261983794 0  0.8460209454012837 0.8084258449188535 0  0.1293517554287885 0.4305045409359897 0  0.3205820557512212 1.373790064297892 0  0.2928933613730453 1.155196229839076 0  2.404969940572298 1.358123451328196 0  0.9933877375830629 0.5899302104012978 0  2.090287791367255 0.1211621925433303 0  2.904889173308855 0.28125 0  0.1246766077328953 1.375323392267105 0  2.302041695038792 0.7931069109810627 0  2.389228836127323 0.5648368411465005 0  1.886839219693261 1.174850198523801 0  1.96875 1.5 0  2.005259577028834 1.368575570359887 0  2.58746882374347 1.183267841227943 0  1.646515580921743 0.3486369169127919 0  1.980147904783248 0.5942137934419368 0  2.07740167257538 1.055304717195479 0  1.57300338334685 0.6065157750282059 0  1.59375 1.5 0  1.679678032322464 0.2100937046526968 0  2.252673654577562 0.9960348417811178 0  2.17832845930892 0.8178435559778986 0  1.78125 1.5 0  2.021596890434516 0.349571947542988 0  1.79926971381977 0.1752587163176004 0  0.503878860142697 0.3943984894172995 0  1.146622573165596 0.8060813049917908 0  3 1.40625 0  2.649807995179342 0.2020005420916801 0  0.3438742656237004 0.2790576170649142 0  1.546875 1.386334759531577 0  3 0.09375 0  1.320989371181643 0.9800954309611291 0  1.270074893254929 0.7536540780084714 0  2.70770359261854 0.4387759707667409 0  0.5606072232931772 1.296106034499297 0  0.7858104720553775 1.211812834033452 0  2.317237622700128 1.09958886094401 0  2.518665098961854 0.68166123334458 0  1.747777558052355 0.4158756118164814 0  1.683029275145126 1.069756268641544 0  0.46875 1.5 0  2.407758410849746 0.2048845882413086 0  2.396684507181482 1.235853070423643 0  1.919569286509587 0.7755948020085885 0  2.290752654053557 0.4002939182457882 0  0.2367853577638227 0.6856443876677092 0  1.644821718344275 1.219632237269969 0  0 1.03125 0  0.5821665354391095 0.7878606619613046 0  0.6422016866915001 0.674771619551397 0  0.2917070890414653 0.4458139506278615 0  0.7912018819596407 0 0  0.1045102716700244 1.249819735557644 0  1.151091219660612 0.9224858968529193 0  2.719174284445647 1.071883664029489 0  0.7216906855953001 0.918545393630683 0  0.2528020696803429 0.8787006417214202 0  1.726437981314609 0.9055659975386789 0  1.466273966174817 1.158744006060248 0  0.500278661176367 0.9948136517426003 0  1.114706325735654 0.2023659607018325 0  1.193213601931895 0.2926984867334158 0  0.9725372994821596 0.3724679154862157 0  2.214714190066689 0.1991474088029779 0  2.411776451427861 0.8179674328277735 0  1.997105232295531 1.153439169094244 0  0.497834479014996 1.390464488336983 0  0.4532232073331143 0.5868543641678674 0  0.4094710929462204 0.7215160819073434 0  0.2730945637736263 0.1927345247561336 0  2.091452909128697 0 0  1.88727127931541 0.9574017932976476 0  0.7331675361580886 0.4562359341911597 0  0.808798696301996 0.1107204599928528 0  2.794056136375906 0.2935548935723623 0  2.172174128810919 1.263645408055929 0  2.266351953173893 1.389929090293708 0  0.9205129738298803 1.252177379624563 0  2.58760749
[...]
<PointData  Scalars="f_66"> 
<DataArray  type="Float64"  Name="f_66"  format="ascii">1.4675511637189123e+01  -2.5343838797645951e+01  -2.3993148836673477e+01  -2.3487048495154887e+01  -2.2680442317820553e+01  -2.0196562756668410e+01  -2.1888249934131647e+01  -2.2604249640532977e+01  -2.3764982074331062e+01  -2.5093154999043669e+01  -2.0648499032425285e+01  -2.0780388301116627e+01  -2.2440641749667165e+01  -2.2224038525275848e+01  -2.2416442901668141e+01  -2.0632621070610025e+01  -2.0379784432814787e+01  -2.1856828640034269e+01  -2.0783346856019897e+01  -2.1646140022440790e+01  -2.0263739106773286e+01  -1.8855170331915019e+01  -1.7215836629641597e+01  -1.9092960264310282e+01  -2.0484568762698576e+01  -2.0813207586420688e+01  -2.0038606249400125e+01  -1.9080485666390619e+01  -1.8718987170964731e+01  -1.7371184444146486e+01  -1.5524783648451958e+01  -1.5922741366186587e+01  -1.7972945881065922e+01  -1.8265902988962079e+01  -1.9059359399209345e+01  -1.8052280986006185e+01  -1.6700344495906077e+01  -1.5154221540814587e+01  -1.3661461070672615e+01  -1.5302740718523575e+01  -1.5709105994130574e+01  -1.4876214744956068e+01  -1.4415808270806183e+01  -1.3811769925116868e+01  -1.1647932636867242e+01  -1.2511846837844695e+01  -1.2965898739506921e+01  -1.3051318734736890e+01  -1.3273389313121827e+01  -1.1767881170518955e+01  -1.1412691157516136e+01  -1.0547270117829280e+01  -1.0689998568739691e+01  -1.1335582731909330e+01  -8.5432142475512673e+00  -8.9842183626902088e+00  0.0000000000000000e+00  0.0000000000000000e+00  -8.2188418240393890e+00  1.9555112326080554e+01  -1.7842767756516288e+01  -2.2130935332640089e+01  1.4470055680082959e+01  1.6547262893034869e+01  0.0000000000000000e+00  -8.0146811785787020e-01  -4.8764995243713036e+00  -1.4681573421141212e+00  -6.9742079087103050e+00  1.6268150571955296e+01  0.0000000000000000e+00  1.4110488365915302e+01  3.6680235448853673e+00  1.4374926631252368e+01  1.6887815530877666e+00  5.8156436799499138e+00  -1.3658902183822770e+01  4.3857957480583778e+00  1.7492487236974199e+01  1.7009302711799468e+00  -7.3216602200726699e+00  0.0000000000000000e+00  -9.2523715374147208e+00  -1.2025529589926562e+01  2.4598052990838886e+00  -2.5075190257734650e+00  7.1404349082259770e+00  1.7849428106369627e+00  -1.4560659082501424e+01  9.2259602959478926e+00  -6.8726971325189146e+00  -6.3244694065664486e+00  -2.8939892947161820e+00  -3.1230698140602438e+00  5.0922657839337750e+00  5.9600760937557480e+00  7.4735108743232139e+00  5.9596765185265754e+00  -1.5906922205196873e+01  -1.3176399822831060e+01  -5.8747263292916765e+00  -1.2916421134724143e+01  -2.1791676907319348e+00  -1.4283183999728708e+00  -1.0765491593016359e+00  9.1573432669858867e+00  1.9955378189671222e+00  -1.1599786581088484e+01  4.8409637768035969e+00  0.0000000000000000e+00  1.7386737057376261e-01  -1.0356399102732579e+01  -1.8178049988803419e+01  -1.8709249241465599e+01  -8.3844490108219514e+00  -7.8436748955130220e+00  -1.5281654842208924e+01  8.9654861738170855e+00  9.8335286370362578e+00  2.4954556445479743e+00  -1.2857426712611215e+01  0.0000000000000000e+00  1.0666540392074966e+01  -5.2656566026431051e+00  7.1366828044988990e+00  1.6540589664926589e+01  9.4664893335308520e+00  -6.5758455892205148e-01  2.3516967208421997e+00  1.5780725551677923e+01  -1.8960842209342459e+01  -7.1824252213488737e+00  -1.4142385821082792e+01  -1.8757881875148193e+01  -7.6626798690806126e+00  -4.7378007118673136e+00  -3.6545617315751673e+00  0.0000000000000000e+00  1.7783244535651472e+00  -1.0429196813163218e+01  1.6413418140295750e+01  1.7178843999523664e+01  1.2805726467494665e+01  1.9415303775427983e+01  0.0000000000000000e+00  -3.2485431479225495e+00  6.8882446818674943e+00  1.9119841352082517e+01  6.2177341258437249e+00  -2.1958416736091504e+00  8.8136063299314547e+00  8.8366764708134449e-01  1.0799885748595257e+01  -6.9911239070752513e+00  -5.8147949936758021e+00  -9.8729012806947338e+00  1.1512733872184895e+00  -1.3031395269339452e+01  -2.8678960575297641e+00  -5.2783150443187277e-01  -3.2672286267707951e+00  4.5197345131857638e+00  1.0977334450949389e+01  -1.8381258111972684e+01  7.5704129651029834e+00  3.3934214861994674e+00  -8.3096238082187810e+00  2.7749664355856587e+00  -1.8902361734863699e-01  -6.3163727408958961e+00  -1.0574884245846508e+01  -1.7359233972427351e+01  4.4062487468807969e+00  -1.2829482171844880e+01  -5.7806852157143576e+00  -1.0191214787468102e+01  5.4273508565011834e+00  3.1023783493959134e-01  -4.0439284149031183e+00  -2.1100019626005051e+00  1.2675249139569358e+01  1.1476899941940932e+01  9.2394134320899546e-01  -1.7532771313383719e+01  4.2604021413037811e+00  -1.0280242612351980e+01  1.0119536081559442e+01  -8.3552934195597253e+00  1.2004443232986404e+01  -2.1694718850446016e+01  1.1000899056809350e+00  -1.1138679259863737e+01  -4.4948263586951196e+00  2.6289472311878161e+00  -1.5494766885036018e+00  -4.7221800322429157e+00  2.3414078287202242e+00  -9.7208671515565748e-01  3.0990331989194710e+00  9.1096466630899471e+00  2.9548355150145373e+00  -1.0461973318273552e+01  -1.5065264467641938e+01  6.1300794912271055e+00  -1.9363596540049798e+01  -1.2725093378987861e+01  -4.9026510423285430e+00  -2.0556873148070519e+01  -4.1025978259835876e+00  -1.5969238510234176e+01  9.3254471195512370e+00  3.1158796907890336e+00  1.1701425824424797e+01  -8.9590936587623773e+00  -1.4313189042994324e+01  -3.2386624912981667e+00  8.7302831034413568e+00  2.1762335094001653e-01  -3.8366214674558798e+00  7.5442303153190009e+00  1.6832586326249189e+01  1.2309170369446651e+01  6.5589579510948424e+00  -1.2348597995512275e+01  -5.0704381087448303e+00  5.0011989335364611e+00  -6.5075258840153971e+00  1.6670131247014041e+01  -1.5229146854324142e+01  3.8911073569912471e+00  7.4622122004276661e-02  1.9904401821310667e+01  -1.0234237979786888e+01  -1.5339524309997051e+01  -1.5664586390475460e+01  -3.1888994588094750e+00  0.0000000000000000e+00  -7.8828888308665555e+00  -1.8893876692613670e+01  1.2738942576992256e+01  0.0000000000000000e+00  1.6647937435204689e+00  -3.9857896729060309e+00  -4.1031646673449700e+00  7.3790928213559859e+00  5.7938601312589730e+00  6.0274645282407153e+00  -1.4556496518386743e+00  -1.0251314046612356e+01  4.6957731088216690e+00  1.3573058308541480e+01  -1.0450588369909637e+01  8.4349201584156575e+00  -1.4202642720930341e+00  -7.3876087983281060e+00  -9.1541203180461661e+00  8.2360720048566272e+00  -7.5792455308291962e-01  -5.4344956254854830e+00  -8.0426284346087815e+00  -1.5046494754199047e+01  -2.0335490129236639e+01  5.2015041489367695e+00  -3.2711354811116578e-01  3.5035009177016900e+00  -1.6494298040719508e+00  -4.1281476666798769e+00  9.7329948290701407e-01  6.3020049182227087e+00  -4.7514516257235118e-01  -1.7996833014188681e+01  -1.5539858482522426e+01  -1.4507517429011077e+01  -1.2077129239892152e+01  5.5098233204536551e-01  7.1439604598861388e+00  9.8171803242414342e+00  -1.0916944453184147e+01  -7.5981808758210194e+00  -2.1237522991981351e+01  -1.6412911779936941e+01  2.5301348962423473e+00  -1.3244750581706032e+01  -2.0843209309984044e+01  -5.0952964645868652e+00  9.5904647429227161e+00  1.2890029506231368e+01  7.3148254015198688e+00  2.6315868920729657e+00  -2.6819095608146029e+00  1.0075647724922558e+01  2.8955288907546177e+00  -1.7579074045266188e+00  1.2063001192815220e+01  -1.0074310087298853e+01  -7.4400022505136363e+00  -2.6214278542012646e+00  0.0000000000000000e+00  4.2577669019173042e-01  6.0293050838135021e-01  1.3444716558328198e+01  -7.5200042414060633e+00  -7.8461193334291908e+00  2.8863186156532374e+00  -2.0811257190375812e+01  -1.6275946743338963e+01  -9.6660501214861618e+00  -1.3406793078910123e+01  4.4270593194675634e+00  -2.0202002316307293e+01  4.2373336669526802e+00  -3.3710375602834991e-01  -2.1180648934881379e+01  9.3505384210063891e+00  -1.6549603228780679e+01  -1.4785588569626434e+01  -2.2116637774479262e+01  -6.3146609110719476e+00  3.4968721327745498e+00  4.9238234569222739e+00  5.5507336859466454e+00  0.0000000000000000e+00  2.5122941082890299e-01  -1.1643362228937615e+01  1.8718727066572383e+00  -2.0517708929206129e+00  -3.9512080340611746e+00  -5.8040461050446899e+00  1.5179210185264012e+01  1.2082971256273709e+01  1.6147691938558321e+01  1.1480979441346967e+01  1.8407355432452439e+00  5.0941541837705078e+00  -1.8962917003703694e+01  -1.8616914845669999e+01  1.7583608705949068e+01  -1.7892473144401528e+00  1.8423039763875690e+00  2.9844968241889798e+00  7.8038819100758969e+00  -1.8533054048995503e+01  -8.3808696258067350e+00  5.3187133811212037e+00  7.1066395469757895e+00  1.2345953547072788e+00  8.0527464569704732e-01  -1.5880803531572389e+00  2.5246387541136878e-01  -1.1268224689354378e+01  -1.2866959798927891e+01  9.6176500416306467e+00  1.6332462287173739e+00  6.3600692062981370e+00  -7.8752860342768205e+00  -1.0255588488103298e+01  -1.4481582564415028e+01  -7.0538932270261823e+00  -2.6183139224915783e+00  -5.4520521540285589e+00  -4.1945728335257435e+00  -8.7216247315725539e+00  -1.0656240780450466e+00  9.3099127950504545e+00  -1.9303905718317083e+01  -1.7895174195840543e+01  -1.2758938513257299e+01  1.6435542838968061e+01  9.5994910097972390e+00  -1.5290200605634061e+00  -5.7407711267119215e+00  -4.3107617777270120e+00  3.4038073688205408e+00  -1.5584788593328973e+01  9.7219266026764650e+00  1.3551586583996780e+01  -1.7184111593108589e+01  0.0000000000000000e+00  0.0000000000000000e+00  2.1791009505662067e+00  1.2542890753511877e+00  -6.0983423239316403e+00  -1.2659209162079588e+01  7.1190492777986769e+00  1.1119214384338299e+01  8.1581332778660602e+00  -2.8524282591272683e+00  -5.0955196823132072e+00  2.9506635717704008e+00  -5.7103967386232188e+00  6.5306790369181866e-01  0.0000000000000000e+00  -2.0108897480125737e+01  1.2766265331249858e+01  1.5433801870218051e+01  -1.0687184357035935e+01  1.6378126161110309e+01  1.8525822503741818e+01  -2.3239427436339913e+01  1.8448719481304469e+01  0.0000000000000000e+00  4.1868734509212997e+00  1.0082433741047470e+01  1.4716473432241544e+01  1.6197900025027611e+01  7.7342422668839879e+00  -4.5284664315611058e+00  -7.5196615208949478e+00  -1.6466386525239438e+00  -1.2410165103565031e+01  -8.7182919480041772e+00  4.3054166271694463e+00  -6.1441607346068610e+00  -1.4558885536784183e+01  1.0603918122206556e+01  -5.0895273867939599e+00  4.2122041565519186e-01  -2.1096527640013701e+01  1.2012837905356086e+00  -1.1563060265284562e+01  -1.0408693141901104e+01  -3.8709866120217038e+00  1.2788952122903181e+01  -6.7885996374721183e+00  1.3903319761686687e+01  3.1421136819074991e-01  2.8863735959478776e+00  6.9027222628098461e-01  -1.3618190413451028e+00  -3.0623770237838022e+00  5.2939022017071613e+00  3.2709627235955563e+00  -1.9189459452866391e+01  -1.1037300928347147e+01  9.5151170847896740e+00  -6.4405736376961329e+00  4.1489106360967902e+00  -1.4890794541839739e+01  -1.5853372225846599e+01  -3.8404778264683617e+00  -1.7969699593270274e+01  6.4211844111008549e+00  -1.2615762434356595e+01  -1.2161698996808260e+01  -1.6851022455744786e+01  5.5168371218877041e+00  -1.9137597827686136e+01  -5.9796842210546641e+00  -2.8674710958099072e+00  -2.2257841335417890e+01  -8.1129406400234600e+00  -5.1679020184514413e-01  -8.4422661689985183e+00  5.3712156585817930e+00  3.7855452345966274e+00  -1.4936545059428026e+01  1.8300389495940914e+00  1.0183913002687683e+01  -7.0414667863500684e+00  -4.8830692459199926e-01  9.1573865834510961e+00  5.5103102937404902e+00  6.5981299838349194e+00  -1.6767086465034684e+01  3.7932818079504904e-01  -3.4793198496895461e+00  -6.3314385724912530e+00  -6.7659402239031525e+00  -9.0852895287483673e+00  1.5819590287768024e+00  -4.7962258243911107e+00  5.2450787006808923e+00  -6.7323381106968743e+00  -4.6936690288906489e+00  -7.1499431824110715e-01  -1.3479102159515759e+00  1.0553870314446406e-01  -9.3400570713413433e+00  -7.9260561834677254e+00  5.2302199876367625e+00  2.7825295225928586e+00  1.1925455777066515e+01  1.0837048680939581e+00  4.4649232241468226e+00  -9.1692501662161952e-01  -8.6780868660745956e+00  -9.6592189748424584e+00  -1.2621110845047129e+01  -1.6119546168957626e+01  -2.5266395044192889e+00  -8.3496940372277351e+00  -3.0236327351108980e+00  -2.6219198265709003e+00  -1.8016208607405884e+00  -4.3134435311617851e+00  -3.3090156220434479e+00  -1.6146251484202264e+01  3.1083614746901405e+00  -1.1239901351421119e+01  -1.3613930505678763e+01  -1.3262448697799938e+01  -1.9997925706341473e+00  -2.3217101587493925e+01  -1.8710754218977002e+00  8.9092117576629306e+00  -1.1039977434817436e+01  -8.2702811411165484e+00  -5.5722792693496794e+00  1.1439954081957827e+01  1.4879857106388524e+01  7.4101083532853176e+00  3.8386198893194186e+00  1.1950861300165547e+01  -1.9984592428610178e+01  2.9769143657501840e-01  -3.1984936927574275e+00  1.2521906691322579e+01  -8.7174585890555356e+00  1.9129520562392430e+00  4.5857042760123505e+00  7.4360034862608648e+00  -1.5238439678741880e+00  -2.0829431802097936e-01  1.4851427756823332e+01  1.4517159509794940e+01  1.1063604216492578e+01  -3.2658847977260468e+00  -1.3112296434679735e+00  -7.3822182784902157e+00  1.4900352337941911e+01  7.3514389449531050e+00  4.3042515040464400e+00  -9.0061540952587436e+00  -2.6632377421371639e-01  1.2077478731338342e+00  2.8861401008808801e-01  3.5732976629185429e+00  -4.1747561493888066e+00  6.5359742249763046e+00  3.8269840945462348e+00  1.3539288957866480e+01  5.9042968958528175e-01  3.1216520390623992e+00  -1.3045544592437775e+01  -1.3434027657494038e+01  -1.3107496714470294e+01  7.8540834589009272e+00  -2.1205870927494676e+01  -2.0149225314366298e+01  -1.6940846172501502e+01  1.2695218596221749e+00  -1.3950753496545577e+01  -6.1113284892941637e+00  3.4929079286456877e+00  7.8255037501654030e+00  -1.7760079891315595e+01  -1.6093283973015556e+01  1.3684786833279473e+01  9.5108538850363473e+00  1.0885532985751221e+01  1.1141507381043887e+01  -5.4710778003746663e+00  2.7495529340100480e+00  1.1452242720867650e+01  -1.5976583920400959e+01  -1.6903917149327885e+01  2.7118289374024190e-01  -9.5645375403157331e+00  -1.4662871504792962e+01  -6.6865280210406763e-01  -7.0023336983251045e+00  -1.1096823619595805e+01  -9.9832721342153814e+00  -1.1817458408125615e+01  -9.2546228744910088e+00  -1.1682006148466867e+01  8.6415284921873461e+00  1.7206717965633276e+00  -1.9986424528968818e+01  1.3064639399497651e+00  2.2726831824626261e+00  -4.9561806194744307e+00  -4.1121079857796445e+00  -1.9043417280316675e+01  -2.1814048640076216e+00  -1.5350702011866540e+01  1.4809976182042723e+01  -2.0285689851995592e+00  -3.2189961521459383e+00  -9.7464493196741464e-01  -4.1170462603904827e+00  -6.0884554004004077e+00  -5.6704317530708881e+00  2.7645598482429229e-01  2.7280999571146936e+00  -2.2074122326005611e+01  -2.0321476138481014e+01  -1.1762614260412635e+01  7.9901724524781486e+00  -1.5993494165947924e+01  -1.3674812649784911e+01  8.4150309856404686e+00  4.9011419616153242e+00  -1.7336646690283068e+01  -2.0198146441908740e+01  -1.3911521416924444e+01  -1.3757047208608538e+01  3.4945739806167486e+00  1.9084090709763799e+00  8.1690874582505302e+00  -1.8913918413530446e+01  -2.0702142266672613e+01  -1.7725035702016488e+01  3.8326145930492159e+00  1.2746602792038463e+01  -9.1120062928221852e+00  -2.0399986316761765e+00  -1.1198045297230912e+01  -1.6915460435243919e+01  -2.1788075801623799e+00  -1.1534195866030220e+01  -9.4308792333867739e+00  -6.7226314072477704e+00  1.6463345055610805e+01  -1.6422938080914658e+01  -1.4301932057968401e+01  -1.6969122791747374e+01  -3.6101401106395996e+00  7.0310312546803617e+00  5.0914774480562777e+00  6.5379979259800098e+00  1.5131561560114990e+01  2.7671129387125326e+00  -1.5472477500185102e+01  1.1113832426722523e+01  8.1740500439327022e+00  1.0394526984819354e+01  7.6126413838041156e+00  -8.2963903345940047e+00  -1.1179619816250687e+01  -1.3597031323574376e+01  -1.1203324398249721e+01  -1.3141604947498932e+01  -1.0902468042933609e+01  -1.2012911359535096e+01  -1.2681240556154386e+01  -1.5253742615748502e+01  -1.9668729289567719e+00  -5.0262723569084684e-02  -5.5531055592066814e+00  -4.5192750355325462e+00  3.7724272635775415e+00  5.8691644019631051e+00  -8.7575895595449733e+00  7.3016699927632018e+00  1.1359264845673634e+01  2.4641143811336028e+00  -9.0322662041556212e-01  -1.9027947691283167e+01  1.1094040561003149e+01  1.0301343177673457e+01  1.5052925283071257e+01  9.1765753492793252e+00  -1.9711394826048526e+01  -7.8430202827548863e+00  5.5625052380566622e+00  -1.8855484171555123e+01  7.5955827840571137e+00  -1.0365963746951120e+01  -5.3195410565183343e-01  -3.0336466272223719e+00  -3.3482663296287067e+00  -1.4255133724136153e+01  -2.0728295422859970e+00  9.1589723552336153e+00  6.0944149597254729e+00  -6.7046047067867933e+00  -5.7644227933508638e+00  -4.0077531184478214e+00  -2.6439403647333624e+00  -4.7440614222461495e+00  -2.8035346546265161e+00  9.8620563034636124e+00  -6.5540040971028253e+00  1.5307026836501809e+01  -1.6533397010843672e+01  -5.8251870632671088e-01  1.5003460371526087e+00  -7.0114136092615331e-01  -2.1496419604466128e+00  -1.2081079237441928e+01  7.1377285902064569e-01  -4.5290960836349479e+00  -6.4242762614614790e+00  -3.5907554051102117e+00  -6.2885297101482207e+00  -1.7493337283806888e+01  -9.9261064682202846e+00  -1.1691615603962143e+01  -1.0138284274764640e+01  -1.4758918865556880e+00  -5.8110716003960023e+00  4.3872696015433261e+00  3.6252672607109586e+00  5.6009337926188794e+00  1.2098911473289862e+01  -1.1451584488840551e+01  1.2058283398187280e+01  -1.9934302244566002e+00  1.2979743575991478e+01  1.0283680930303525e+01  2.0123952779110876e+00  -1.5805270964761545e+01  -1.7488768757139077e+01  6.5401608186397997e+00  7.5852623067845952e+00  3.1257976159604346e+00  4.9922957508837884e+00  -1.8271056013623237e+01  4.3592278442267380e+00  4.0574566438533832e+00  -1.6059146089391236e+00  -1.7352074762164992e+01  -4.7525084402653173e+00  4.5703814672112433e+00  -5.4673410999783449e+00  -6.6633612850406978e+00  2.9899347633375206e+00  1.4790309327912569e+01  -1.5626719364328354e+01  -1.4605777326992165e+01  2.4605299713011414e-01  -7.2538493002202902e+00  -7.9717414654255085e+00  6.4816176414251778e+00  7.7972388364585097e+00  -1.9888525605313898e+00  -1.0047368103041109e+01  -1.4422655766412486e+01  -1.1217448817216230e+01  -1.0604733343031556e+01  -2.4848820253695134e+00  -1.7763859519298627e+01  -2.3296142103231666e+01  -7.3075139543705472e+00  -9.5617754573450480e+00  -3.2679808433984263e+00  5.8514810901927672e-01  9.6192186324906430e+00  2.1905400905220107e+00  -1.4137038620420920e+01  -1.8548708343994832e+01  -7.5444871813585968e+00  -6.0139108955245666e+00  5.4802833043964760e+00  1.4210728736019059e+01  6.9359877631789368e+00  4.0571240902928967e+00  5.8116180850296759e+00  1.5101770645044423e+01  -2.0172678931604377e+01  -4.7646987785943997e+00  9.2870406919311748e+00  6.7489988213466594e+00  -3.9502757587551525e+00  1.4813460652709993e+00  -7.5831789857943903e+00  -9.6544666467751235e+00  -9.0668342078267674e+00  -1.9121105847330050e+01  -7.5532211799456350e+00  -9.5911594347717433e+00  -2.0629923450274134e+01  -1.1901011348729691e+01  1.4467458375468219e+01  -8.9732253287884696e+00  7.6304348343619095e+00  -9.2080830765070747e+00  1.7908562270814582e-01  -1.8334929406353744e+01  -2.0104608551794477e+01  -2.7418228812778298e+00  1.5962400223209428e+01  -7.2885590207521012e-01  1.4560662608757429e+01  5.3414531261260487e+00  1.7829400948153309e+00  1.2356978966337566e+00  -1.0579125137948384e+00  -9.1276999979662623e+00  2.6116736055299805e+00  2.0514912537180768e-01  8.7636760324583189e+00  -3.2890240886342585e+00  -1.4796945944231599e+01  8.9558804916134047e+00  -5.1328012378655892e+00  2.3251515263162021e+00  2.7967718225674298e+00  6.1552251862150555e+00  -7.9510573202082890e-01  -2.3648763495861265e+00  -1.5161552853134264e+00  -3.6880790763838522e+00  1.4489418101299588e+01  1.5730784341058898e+01  -1.5514719101856272e+01  -2.1402093983105686e+01  -8.5885918257531717e+00  8.5718268917876284e+00  