<?xml version="1.0"?>
<VTKFile type="UnstructuredGrid"  version="0.1"  >
<UnstructuredGrid>
<Piece  NumberOfPoints="5089" NumberOfCells="9865">
<Points>
<DataArray  type="Float64"  NumberOfComponents="3"  format="ascii">0 1.5 0  0 0 0  0.1029058182573948 0 0  0.1029058182573948 0.02393156642875577 0  0.1251489251828899 0.06631226582407952 0  0.1645395112957465 0.09350162426854149 0  0.2120536680255323 0.0992708874098054 0  0.2568064746731156 0.08229838658936564 0  0.288545602565321 0.04647231720437685 0  0.3 0 0  0.51 0 0  0.5220577136594005 0.04499999999999999 0  0.555 0.07794228634059948 0  0.6 0.09 0  0.645 0.07794228634059946 0  0.6779422863405995 0.04499999999999999 0  0.6899999999999999 0 0  0.8924037639192813 0 0  0.8924037639192813 0.02287028598995353 0  0.9110081306187559 0.06465637775217206 0  0.9450000000000001 0.09526279441628825 0  0.9885018690405581 0.1093974084905101 0  1.033991869381244 0.1046162167924669 0  1.073604366699474 0.08174593080251337 0  1.100490000340686 0.04474103073833802 0  1.11 0 0  1.502905818257395 0 0  1.502905818257395 0.02393156642875577 0  1.52514892518289 0.06631226582407952 0  1.564539511295747 0.09350162426854149 0  1.612053668025532 0.0992708874098054 0  1.656806474673116 0.08229838658936564 0  1.688545602565321 0.04647231720437685 0  1.7 0 0  1.82324056211084 0 0  1.82324056211084 0.02253860454731437 0  1.847611141284377 0.06045996594834066 0  1.888614812938137 0.07918571535047463 0  1.933233201040151 0.07277055962836147 0  1.967300282626494 0.0432512653964478 0  1.98 0 0  2.202905818257395 0 0  2.202905818257395 0.02393156642875577 0  2.22514892518289 0.06631226582407952 0  2.264539511295746 0.09350162426854149 0  2.312053668025532 0.0992708874098054 0  2.356806474673115 0.08229838658936564 0  2.388545602565321 0.04647231720437685 0  2.4 0 0  2.51 0 0  2.522057713659401 0.04499999999999999 0  2.555 0.07794228634059948 0  2.6 0.09 0  2.645 0.07794228634059946 0  2.677942286340599 0.04499999999999999 0  2.69 0 0  3 0 0  3 1.5 0  0 0.75 0  1.5 1.5 0  0 0.375 0  0 0.1875 0  0.75 1.5 0  2.25 1.5 0  3 0.75 0  1.803364316093307 0.8194216192460635 0  0.7085714285714286 0.7914285714285714 0  2.396697907928333 0.698796196655595 0  1.26039230397729 0.6323879781298929 0  1.125 1.5 0  3 1.125 0  0.375 1.5 0  1.418284719659703 1.05567510076647 0  2.625 1.5 0  0 1.125 0  2.4375 1.120298797465005 0  0.4140309460188812 0.4815551607069073 0  0.9375 1.133540466589862 0  1.875 1.5 0  0.4143011358073044 1.085698864192695 0  2.042557228405723 0.4764057674039468 0  3 0.375 0  1.615235786026768 0.4839120951620492 0  0.9172436665953028 0.4786128535408891 0  2.136144598898015 0.9367443054342734 0  2.712089662802327 0.5625 0  1.752709466448716 1.168812671476193 0  2.696461986964791 0.9012929362807449 0  1.307422665144653 0.3094324321200764 0  2.0625 1.24476578117044 0  2.446405755792607 0.3860402512509704 0  0.3158723471199726 0.7836709721106835 0  1.018921994797561 0.831404696897531 0  1.521099871135537 0.7571953762650785 0  2.718190509848388 1.189592528269884 0  0.665307193508031 1.225469494285917 0  1.199897701782483 1.230481185797768 0  0.2233959957266646 1.276604004273335 0  0.6649397520368477 0.3607836886074089 0  0 0.5625 0  2.685543358160364 0.3192521589045413 0  1.775621962986754 0.2975552026784072 0  2.025654700292002 0.7195245521041802 0  0.1961827192748887 0.9897295638426992 0  1.25729921569077 0.8746334216075233 0  1.534142212444284 1.264044413891354 0  1.624439414641745 0.9597398592303362 0  2.117668421489377 0.2641528949307972 0  1.945094170902585 1.053880768096555 0  3 0.1875 0  0.6251639682912251 1.002291403912492 0  0.719601375969486 0.5727782913443102 0  0.2313942916225519 0.3335511938861402 0  0.4687668770508729 0.274248243200137 0  0.5143238740412669 0.6811446824633056 0  1.829350286632844 0.5059917594077202 0  1.082379929992235 0.3249418149194327 0  2.540679850598416 1.305492850437689 0  2.282283153018704 1.279796495628565 0  2.355666841619378 0.9154942188580675 0  0.2114722061938988 0.5448236655965607 0  3 1.3125 0  2.8125 1.5 0  2.263750685400308 0.5173381079832993 0  0.4343085727049624 1.296611441170993 0  1.6875 1.5 0  1.016037518489582 1.324553740130353 0  0.846292314151325 0.9469220663180872 0  1.122827752751251 1.035495517001457 0  1.3125 1.5 0  1.306452909128697 0 0  0.8906638629565067 0.6773217378320744 0  1.517175933126145 0.2981487507037606 0  0.7996957920902151 0.2224603600775558 0  1.446370464174038 0.5785990786868803 0  1.689965192988266 0.6625083927402473 0  0.4864273298880485 0.870473805626289 0  3 0.9375 0  2.831315819563651 1.036097903808422 0  1.106384347284952 0.5163011422226527 0  0.5625 1.5 0  0.9375 1.5 0  0.1875 1.5 0  2.0625 1.5 0  3 0.5625 0  0 0.9375 0  0 1.3125 0  2.4375 1.5 0  2.196044825237544 1.113880351688974 0  2.210431846521007 0.695834380790271 0  0.8262236946704767 1.326155809103077 0  2.523003751809735 0.8349453583788917 0  1.882533682486712 1.30904671408086 0  2.845 0 0  2.813607095438526 0.1837681344374856 0  2.298597604800397 0.280431891689246 0  1.972062138207083 0.8834951655964545 0  1.943392101370151 0.2475417334111557 0  2.828663592588797 0.4267055109367558 0  2.803791026183859 0.7364868569598708 0  2.523250359922468 0.5585816735541729 0  2.602935827188279 1.053310414780935 0  1.692458045540587 1.328962813001376 0  1.232271555781778 0.154950218767993 0  1.36985844680238 1.21899526865025 0  1.785321775315372 1.004919979330962 0  2.534633602602767 0.2439507161942105 0  0.7651985499724481 1.092302611968735 0  2.637828969450683 0.71279922663893 0  1.100469689258933 0.6843495375675052 0  1.315800235513153 0.4755545830105288 0  1.405546076805209 0.1782543944119986 0  2.826282129872177 1.326282129872177 0  0.575884497984488 0.4967904868667201 0  0.1516233666565383 0.826056857120972 0  0.3483704262380678 0.6272257636119053 0  1.568331672486121 1.108640197801574 0  1.475101554186818 0.9082985267599337 0  1.868470483419324 0.6670273102604994 0  0.3467545185571825 0.9433646607171683 0  2.15625 1.373787484318285 0  1.41742615593433 1.367603819494743 0  2.854904919456998 0.8828609574219635 0  0.9476741986655126 0.255395459587152 0  1.267450600339273 1.091056105706913 0  0.114311143675241 0.65625 0  0.65625 1.37859278398136 0  2.170651243108527 0.4023187025489676 0  1.21875 1.380886352874642 0  0.3798992233573569 0.1593768045411093 0  0.9831420651531181 0.9956358347774316 0  1.456186685150796 0.4319140716985383 0  2.586721317152155 0.4269308613840649 0  2.863979293145301 1.178604739864835 0  1.658646098314701 0.8045749301224775 0  1.383553643956373 0.7098158224076794 0  0.154006438477797 1.138458423126247 0  2.856044831401163 0.5977865618779903 0  0.553876003596687 1.130313370813194 0  2.680231675041409 1.360526450748891 0  2.486056782242186 0.9722817331473952 0  1.891212003911469 0.3789027676568836 0  0.8138227412155181 0.37102502168449 0  1.064674644221452 1.192903489156071 0  0.6045358160041144 0.2320910326486189 0  1.194008126159845 0.4081242368041457 0  2.138311355076408 0.5770795769918613 0  0.134142636330111 0.2313017261983794 0  0.8460209454012837 0.8084258449188535 0  0.1293517554287885 0.4305045409359897 0  0.3205820557512212 1.373790064297892 0  0.2928933613730453 1.155196229839076 0  2.404969940572298 1.358123451328196 0  0.9933877375830629 0.5899302104012978 0  2.090287791367255 0.1211621925433303 0  2.904889173308855 0.28125 0  0.1246766077328953 1.375323392267105 0  2.302041695038792 0.7931069109810627 0  2.389228836127323 0.5648368411465005 0  1.886839219693261 1.174850198523801 0  1.96875 1.5 0  2.005259577028834 1.368575570359887 0  2.58746882374347 1.183267841227943 0  1.646515580921743 0.3486369169127919 0  1.980147904783248 0.5942137934419368 0  2.07740167257538 1.055304717195479 0  1.57300338334685 0.6065157750282059 0  1.59375 1.5 0  1.679678032322464 0.2100937046526968 0  2.252673654577562 0.9960348417811178 0  2.17832845930892 0.8178435559778986 0  1.78125 1.5 0  2.021596890434516 0.349571947542988 0  1.79926971381977 0.1752587163176004 0  0.503878860142697 0.3943984894172995 0  1.146622573165596 0.8060813049917908 0  3 1.40625 0  2.649807995179342 0.2020005420916801 0  0.3438742656237004 0.2790576170649142 0  1.546875 1.386334759531577 0  3 0.09375 0  1.320989371181643 0.9800954309611291 0  1.270074893254929 0.7536540780084714 0  2.70770359261854 0.4387759707667409 0  0.5606072232931772 1.296106034499297 0  0.7858104720553775 1.211812834033452 0  2.317237622700128 1.09958886094401 0  2.518665098961854 0.68166123334458 0  1.747777558052355 0.4158756118164814 0  1.683029275145126 1.069756268641544 0  0.46875 1.5 0  2.407758410849746 0.2048845882413086 0  2.396684507181482 1.235853070423643 0  1.919569286509587 0.7755948020085885 0  2.290752654053557 0.4002939182457882 0  0.2367853577638227 0.6856443876677092 0  1.644821718344275 1.219632237269969 0  0 1.03125 0  0.5821665354391095 0.7878606619613046 0  0.6422016866915001 0.674771619551397 0  0.2917070890414653 0.4458139506278615 0  0.7912018819596407 0 0  0.1045102716700244 1.249819735557644 0  1.151091219660612 0.9224858968529193 0  2.719174284445647 1.071883664029489 0  0.7216906855953001 0.918545393630683 0  0.2528020696803429 0.8787006417214202 0  1.726437981314609 0.9055659975386789 0  1.466273966174817 1.158744006060248 0  0.500278661176367 0.9948136517426003 0  1.114706325735654 0.2023659607018325 0  1.193213601931895 0.2926984867334158 0  0.9725372994821596 0.3724679154862157 0  2.214714190066689 0.1991474088029779 0  2.411776451427861 0.8179674328277735 0  1.997105232295531 1.153439169094244 0  0.497834479014996 1.390464488336983 0  0.4532232073331143 0.5868543641678674 0  0.4094710929462204 0.7215160819073434 0  0.2730945637736263 0.1927345247561336 0  2.091452909128697 0 0  1.88727127931541 0.9574017932976476 0  0.7331675361580886 0.4562359341911597 0  0.808798696301996 0.1107204599928528 0  2.794056136375906 0.2935548935723623 0  2.172174128810919 1.263645408055929 0  2.266351953173893 1.389929090293708 0  0.9205129738298803 1.252177379624563 0  2.58760749
[...]
<PointData  Scalars="f_66"> 
<DataArray  type="Float64"  Name="f_66"  format="ascii">1.3230805735224251e+01  -2.7237644858699870e+01  -2.5729465793857727e+01  -2.5162201489070149e+01  -2.4028416634081179e+01  -2.2008128633039586e+01  -2.3375934305599849e+01  -2.4305204914527152e+01  -2.5537805744572893e+01  -2.6988364679564981e+01  -2.2665751749290713e+01  -2.2695429387832451e+01  -2.3861485826183049e+01  -2.3736103976551700e+01  -2.3674622611782059e+01  -2.2415189714126772e+01  -2.2344621779758402e+01  -2.3902664312637871e+01  -2.2962379426483260e+01  -2.3086947687844333e+01  -2.1731173227443030e+01  -2.0226328684201118e+01  -1.8905264629574248e+01  -2.0385518204431076e+01  -2.2013290404544065e+01  -2.2711230762427874e+01  -2.2001864303311947e+01  -2.1097820912757211e+01  -2.0309949020546902e+01  -1.8895476991244976e+01  -1.7155316843551521e+01  -1.7416240488080401e+01  -1.9348887688297317e+01  -1.9932660917007663e+01  -2.0943806526186915e+01  -1.9937037224889750e+01  -1.8407795854044640e+01  -1.6726536233409000e+01  -1.5343115383656530e+01  -1.6705924344202330e+01  -1.7263003567218849e+01  -1.6569481974227159e+01  -1.6008077093324161e+01  -1.5074918900364219e+01  -1.2959459889616177e+01  -1.3533339430357413e+01  -1.4108473733647278e+01  -1.4570400943459276e+01  -1.5262110991566441e+01  -1.3137669446381825e+01  -1.2634109895184542e+01  -1.1299047110900347e+01  -1.0818526997730658e+01  -1.1208028574227825e+01  -9.7165407713882441e+00  -9.9413348725883850e+00  0.0000000000000000e+00  0.0000000000000000e+00  -8.8432582860958373e+00  1.7634306916446043e+01  -1.8488186108127987e+01  -2.2888569360085917e+01  1.2635503589382306e+01  1.4679461949453257e+01  0.0000000000000000e+00  -1.3851240279680030e+00  -5.5022738169978584e+00  -1.9502109751465335e+00  -7.6090474186058286e+00  1.4653063090020765e+01  0.0000000000000000e+00  1.2563287812469881e+01  3.1098064275255783e+00  1.2993396685732616e+01  1.0740987342586878e+00  5.3202549494625453e+00  -1.4304724793557725e+01  3.7585896330770399e+00  1.5959831738496497e+01  1.0703790492476966e+00  -7.9550299459103542e+00  0.0000000000000000e+00  -9.8765075011410062e+00  -1.2655413024525332e+01  1.9238447190574093e+00  -2.4868144422715592e+00  6.5899176673486854e+00  1.3546724637409957e+00  -1.5297582021182645e+01  8.6666351040319451e+00  -7.2447175875937537e+00  -6.9418293832171178e+00  -3.5184968396872627e+00  -3.7265674843960710e+00  4.5995841291982851e+00  5.3132492061672911e+00  6.8751475035850209e+00  5.3793763293276511e+00  -1.6563512290030044e+01  -1.3784071345586092e+01  -5.8031109803265908e+00  -1.3541841324085899e+01  -2.8091020900946360e+00  -2.0222709070196512e+00  -1.7002767770111495e+00  8.5474425264904319e+00  1.3992809718470607e+00  -1.2189242149068320e+01  4.2566442270088078e+00  0.0000000000000000e+00  -4.4862922195462790e-01  -1.0984431606936775e+01  -1.8723269799103075e+01  -1.9401624378749066e+01  -8.9678805103855268e+00  -8.4347180821022594e+00  -1.5863220390263111e+01  8.4353921444715922e+00  9.2113422346803233e+00  1.8730020748017207e+00  -1.3444933178173496e+01  0.0000000000000000e+00  8.6621654597649869e+00  -5.8604261780911493e+00  6.4804437166561915e+00  1.4869357546349640e+01  8.7903731968727765e+00  -1.2345647194636458e+00  1.7853591802187856e+00  1.4107907440586420e+01  -2.0771572096352145e+01  -7.7944318407585920e+00  -1.4790113651596236e+01  -1.9475048120199595e+01  -8.2748967486642240e+00  -5.3549266542298390e+00  -4.2412624103691527e+00  0.0000000000000000e+00  1.7653877116443799e+00  -1.1049411598624998e+01  1.4559330831859970e+01  1.5487513606289966e+01  1.1201855604204949e+01  1.7558050606640098e+01  0.0000000000000000e+00  -3.8723810582310403e+00  6.1246589911348881e+00  1.6812324366824086e+01  5.6756601309407850e+00  -2.7255710009568017e+00  8.2264256239081064e+00  4.7923716569940689e-01  1.0183192294502827e+01  -6.5906414471594887e+00  -5.8181145786897233e+00  -1.0431077095598585e+01  5.4527765505731096e-01  -1.3669421501035107e+01  -2.7671066079325262e+00  -5.1372946115214235e-01  -3.6443596571558508e+00  3.8533856810551845e+00  1.0391489633899127e+01  -1.9287770548832427e+01  6.9963930285850608e+00  2.8223938145418259e+00  -8.8118481418796133e+00  2.1849296170888137e+00  -6.7348595255088051e-01  -6.9231816360259071e+00  -1.1229058735315881e+01  -1.8167049827520515e+01  4.5337073683220632e+00  -1.3435621741654716e+01  -6.3838678970975824e+00  -1.0821014153508266e+01  4.8251369060253531e+00  -2.7048198790368350e-01  -4.6237221098018226e+00  -2.7424656451697715e+00  1.1866135238983670e+01  1.0849308945849851e+01  7.5735619911348018e-01  -1.8107945995040815e+01  3.6390224984518555e+00  -1.0899490071384399e+01  9.3449952024401082e+00  -8.8956276626645359e+00  1.1112373633969714e+01  -2.2469176597244008e+01  4.6612318061100799e-01  -1.1776790177309021e+01  -4.9290928232372515e+00  2.7298764942270779e+00  -2.1531256194732702e+00  -5.3274996888855197e+00  1.7297786169297524e+00  -1.0097352421394366e+00  2.5205198520454259e+00  8.4210710604024968e+00  2.5590606352425262e+00  -1.1046905759696449e+01  -1.5722984672221665e+01  5.5465661621839573e+00  -2.0074445309386853e+01  -1.3365901914278977e+01  -5.4392162182208459e+00  -2.1272911917386683e+01  -4.6894961847868251e+00  -1.6591660078852577e+01  8.4774661797870721e+00  2.4978057691128219e+00  1.0831613755015791e+01  -9.5976284217186851e+00  -1.5326132997149509e+01  -2.6653503039087654e+00  7.8817304350672091e+00  -4.1715099414022566e-01  -4.3082360826491843e+00  6.9614269545900074e+00  1.5037013370595139e+01  1.1665061964216667e+01  5.9291941351542041e+00  -1.2967023798927952e+01  -5.7028402493486761e+00  4.4278340188563048e+00  -7.1259213880002381e+00  1.5084049368760216e+01  -1.5964234589187337e+01  3.3077432152553206e+00  -4.3907808015318955e-01  1.7943408649645203e+01  -1.0870469447912377e+01  -1.6175843095422405e+01  -1.6285184828672726e+01  -3.7795351871842140e+00  0.0000000000000000e+00  -8.0571034112132303e+00  -1.9615916575928342e+01  1.1907514248556062e+01  0.0000000000000000e+00  1.0560742492048965e+00  -4.6143315377917196e+00  -4.0020539933849539e+00  6.7704634027795887e+00  5.2195975238059278e+00  5.3852036982545046e+00  -1.8270203203500923e+00  -1.0877156876243177e+01  4.1227010754720466e+00  1.1832132756142959e+01  -1.1043987434167333e+01  7.8541175486001542e+00  -2.0063835966205081e+00  -7.9875910511790389e+00  -9.7471312744443868e+00  7.6493552956129163e+00  -1.3813051335300748e+00  -6.0295134104342196e+00  -8.6659464639830812e+00  -1.5653932943277633e+01  -2.2332202417729953e+01  4.5370666810427309e+00  -9.0628826460328038e-01  3.0753701772445199e+00  -2.2689817937267840e+00  -4.7227538003170269e+00  3.8722953180207470e-01  5.7436509656297119e+00  -1.0550407321751127e+00  -1.8634530881337106e+01  -1.6194662196786737e+01  -1.5111383098806462e+01  -1.2759663550768748e+01  7.5130839748688311e-02  6.5642238658783167e+00  9.0829186485494979e+00  -1.1530793422070429e+01  -8.2234652925367442e+00  -2.1935829776630378e+01  -1.8333643254760979e+01  1.9570260925259362e+00  -1.3883363788457997e+01  -2.1875346388587332e+01  -4.8613414106926962e+00  9.0211054254404051e+00  1.1980070888444056e+01  6.6856935788677667e+00  2.0372002777926306e+00  -3.3030687960562695e+00  9.4115742545160828e+00  2.3055584403352922e+00  -2.3534864384116352e+00  1.1173772556773132e+01  -1.0681630643864427e+01  -8.0496508605633963e+00  -3.2225287445512190e+00  0.0000000000000000e+00  -1.9874301453824542e-01  1.1089097660383400e-02  1.2458984861861527e+01  -8.1271921727053638e+00  -8.4738563857441935e+00  2.2460705518610262e+00  -2.1651377417589590e+01  -1.6952302103716288e+01  -1.0301721953881087e+01  -1.4035727102471524e+01  3.7797790274745693e+00  -2.1019857201819722e+01  3.6572671196146058e+00  -9.4156973766141183e-01  -2.3189598153151039e+01  8.7801264486281312e+00  -1.7354717510906323e+01  -1.5527046183862659e+01  -2.4001685137327748e+01  -6.9514022988157445e+00  2.8881934899366675e+00  4.3615216983684366e+00  5.0882883707178790e+00  0.0000000000000000e+00  3.5801806027876269e-02  -1.2271146220434241e+01  1.2767684299497499e+00  -2.6719578725661264e+00  -3.5137322095460477e+00  -6.4077567863336160e+00  1.3380936865595848e+01  1.1194763144749134e+01  1.4433534801556371e+01  1.0551744277314587e+01  1.2336878206685356e+00  4.5169563095361598e+00  -2.0804555358533204e+01  -1.9756172565053919e+01  1.5988774899764270e+01  -2.4061407417952059e+00  1.2586480529297268e+00  2.3806730849860944e+00  7.0918679061200374e+00  -1.9170227571419456e+01  -8.3268341012795588e+00  4.7417110279112533e+00  6.6551084121279231e+00  6.5434511591621614e-01  4.9876044229925831e-01  -1.4911206458986674e+00  9.3805898925607673e-02  -1.1964636165996327e+01  -1.3478031101501436e+01  8.8196161430386013e+00  1.2906136350291553e+00  5.7031263810244406e+00  -8.4914337029947742e+00  -1.0851945985129575e+01  -1.5225875825452325e+01  -7.6768387917850163e+00  -3.2226981155700951e+00  -6.0588898827445909e+00  -4.8054423708144007e+00  -9.3448865445422022e+00  -9.3100667175884000e-01  8.7264665752003001e+00  -2.0150349878481961e+01  -1.8583708634871858e+01  -1.3441308300655166e+01  1.4377210412716002e+01  8.0684529080375782e+00  -2.0105928527534003e+00  -6.2440797832369554e+00  -4.9412851478465116e+00  3.4259540608797328e+00  -1.6209482977495579e+01  9.1409300093641814e+00  1.2714129039734669e+01  -1.7823465621247365e+01  0.0000000000000000e+00  0.0000000000000000e+00  1.9278878360589840e+00  1.2089025180650081e+00  -6.5363028967985741e+00  -1.3287225899363635e+01  6.5604587226064686e+00  1.0163367927123529e+01  7.4953283096341741e+00  -3.2413784485694279e+00  -5.4256627987071866e+00  3.0611686994085359e+00  -6.3356598547030103e+00  2.4786446037529251e-02  0.0000000000000000e+00  -2.0772051109803002e+01  1.1248720693070192e+01  1.3859636761807975e+01  -1.1306503042239360e+01  1.4731977676021586e+01  1.6670489791601081e+01  -2.4595329329039441e+01  1.6656993600880980e+01  0.0000000000000000e+00  3.5422276838208431e+00  8.9869041009466191e+00  1.2988944371527921e+01  1.4310685274732705e+01  7.1365986609975467e+00  -5.1574490156915065e+00  -6.6919101105792249e+00  -2.1935917247991168e+00  -1.3032819514654124e+01  -9.2137190506625419e+00  3.7758397098067800e+00  -6.7318962457366549e+00  -1.5166799706354727e+01  9.7618364846374028e+00  -5.6979790837788284e+00  -1.6976392078177652e-01  -2.2536201197735146e+01  6.0975765456240627e-01  -1.2156885842685302e+01  -1.0967351176087014e+01  -4.4844842159966802e+00  1.1863281931996170e+01  -6.2938716542310669e+00  1.2791033428963384e+01  -2.5979009916439788e-01  2.8699209690789300e+00  6.7698742639966628e-02  -1.3745834220039750e+00  -2.8716192682335300e+00  4.8318138320782538e+00  2.6213727577463954e+00  -2.0191709475272990e+01  -1.1667136933337687e+01  8.7004650614986936e+00  -6.9707199385793501e+00  3.5819191420669716e+00  -1.5670661250522953e+01  -1.6497712449917792e+01  -4.3857943904693988e+00  -1.8815053121066072e+01  5.8851360229603449e+00  -1.3196640937791500e+01  -1.2789431926308936e+01  -1.7661508326728494e+01  5.3445819243151371e+00  -2.0184067032313205e+01  -6.5629782754646300e+00  -3.1935137105962035e+00  -2.3130604806146700e+01  -8.7157677133184119e+00  -8.5678464003750854e-01  -9.0613214567672546e+00  4.6449899477781189e+00  3.8254510153944046e+00  -1.5562586944396974e+01  1.4003623288760938e+00  9.5559504310100642e+00  -6.7710371324762777e+00  -1.1126224755729224e+00  8.6064674183738887e+00  4.9458995266493782e+00  5.9751640826165122e+00  -1.7774714743451959e+01  -2.0286852664324478e-01  -4.0825142670027486e+00  -6.9220421501546454e+00  -7.3851390675975903e+00  -9.7120421441604865e+00  1.0058414347841200e+00  -4.5521935270072156e+00  4.6458799854458670e+00  -7.3540656636682060e+00  -5.3077119449806611e+00  -8.1499061454850874e-01  -1.5752956651719365e+00  -3.8482680430487576e-01  -9.7274221844100595e+00  -8.3600283725464308e+00  4.6687979472454320e+00  2.2032936725847381e+00  1.0927017310661181e+01  5.1150683279054265e-01  3.8387816513878463e+00  -1.5443165085809791e+00  -9.3197082821902502e+00  -1.0290650718103560e+01  -1.3304087833804832e+01  -1.6953575058610291e+01  -3.1100948104840413e+00  -8.9052808278135416e+00  -3.6282689733096398e+00  -3.2055976882570900e+00  -2.3883138802278667e+00  -4.9306223034854488e+00  -2.9648650431912107e+00  -1.6714720624027141e+01  2.4628591768127963e+00  -1.1866505106609107e+01  -1.4222207998007274e+01  -1.3898947283399108e+01  -2.6146409298254527e+00  -2.4348953165193826e+01  -2.4613206110000436e+00  8.3782537065643385e+00  -1.1638168749899211e+01  -8.8932253887926560e+00  -6.1914402212741200e+00  1.0775788939770756e+01  1.3655417941084224e+01  6.8038168751551824e+00  3.2410642030073475e+00  1.0728026076053297e+01  -2.1151207952678931e+01  -3.0006951504561830e-01  -3.7293422672567296e+00  1.1506385138333458e+01  -9.3152864017055936e+00  1.3445475262592954e+00  4.0110357863966550e+00  6.8120966306632615e+00  -2.1270623286909816e+00  -8.4563996753801396e-01  1.3703968720420436e+01  1.3398383809172186e+01  1.0438873995766672e+01  -3.8982440169842296e+00  -1.9329338174970401e+00  -7.9085580161118543e+00  1.3577748566463489e+01  6.7153215820785830e+00  3.8673572266368876e+00  -9.6321542037102414e+00  -2.4018726349784247e-01  8.4010995688915080e-01  1.9076688651784218e-01  2.9774299768283705e+00  -4.7803152946645726e+00  5.9677312320142777e+00  3.2386784698712994e+00  1.2618993091707370e+01  5.4556117557059158e-01  2.5312720404513649e+00  -1.3718512777864371e+01  -1.4125009215365731e+01  -1.3791212860682739e+01  7.1932793102290118e+00  -2.2166466947667466e+01  -2.0697841021970170e+01  -1.7559633949512421e+01  6.7093002813028757e-01  -1.4579919049289186e+01  -6.5402454491264210e+00  2.9047616559722211e+00  7.2767392028903402e+00  -1.8468597225439421e+01  -1.6665691125788804e+01  1.2459780889548378e+01  8.8569354835502647e+00  1.0196477266120251e+01  1.0517157533966586e+01  -6.0681843643785776e+00  2.1537747803293472e+00  1.0622773703092836e+01  -1.6642149893890650e+01  -1.7597116926401998e+01  -3.3295006463724597e-01  -1.0195079610684950e+01  -1.6142294150725530e+01  -7.1833649938622635e-01  -7.5679887918720592e+00  -1.1696125275230630e+01  -1.0535276220955346e+01  -1.2424547419972084e+01  -9.8807260756868054e+00  -1.2314093588575266e+01  8.0982622964991950e+00  1.1166561004983349e+00  -2.1764837130478583e+01  7.2101051882237177e-01  2.0375481966804410e+00  -5.1874192552956311e+00  -4.5301396748432525e+00  -1.9642573494144703e+01  -2.0438951680482389e+00  -1.6386417062313047e+01  1.3167524528800335e+01  -2.6345298854345054e+00  -3.8292166109937229e+00  -1.5697245843096002e+00  -4.7139621928359627e+00  -6.6941518697245757e+00  -6.2977901389452668e+00  -3.3689596144618855e-01  2.0960334949728918e+00  -2.3182521464693860e+01  -2.1130551881457205e+01  -1.2355716666675079e+01  7.4039886336817675e+00  -1.6759706379684850e+01  -1.4628596681938600e+01  7.7850571080355300e+00  4.2913632975463010e+00  -1.8027087082235457e+01  -2.0859334725008846e+01  -1.4592013622973406e+01  -1.4394079070118893e+01  2.9732984447564825e+00  1.5118044369686303e+00  7.5926311429128566e+00  -1.9559188032222917e+01  -2.1708737229888296e+01  -1.8403164000813447e+01  3.4657189499923837e+00  1.1418174088224577e+01  -9.7240986453868494e+00  -1.5465545833972068e+00  -1.1818822119553912e+01  -1.7549189842138997e+01  -2.6919539378714896e+00  -1.2137879733643977e+01  -1.0017973930410781e+01  -6.9980935201053613e+00  1.4940690941912191e+01  -1.7071255157176441e+01  -1.4903278449664878e+01  -1.7642161668534278e+01  -3.7442306394713469e+00  6.4633089789691338e+00  4.4649723617855051e+00  5.9855530818285230e+00  1.3975608185939617e+01  2.1196913214814455e+00  -1.6244699027077207e+01  9.7883024044334004e+00  7.3768032606941158e+00  9.3549487055673577e+00  6.9679912749596928e+00  -8.8958472600952287e+00  -1.1807971094270217e+01  -1.4202348851515980e+01  -1.1853999516356673e+01  -1.3745106736039066e+01  -1.1522892833384098e+01  -1.2640073188357754e+01  -1.3307106755115125e+01  -1.5906199339478171e+01  -1.9070078383247195e+00  -6.6350506937343756e-01  -6.1544962051169847e+00  -5.1387390599181479e+00  3.1212869917420134e+00  5.2658559719992768e+00  -9.3222558278455683e+00  6.6432137798054205e+00  1.0276499284045380e+01  2.1372531433338500e+00  -1.5078424002244810e+00  -2.0872531994489400e+01  1.0456069733232729e+01  9.6831705706817441e+00  1.3424220197381574e+01  8.5083145454933504e+00  -2.1491558296111830e+01  -8.3028869818582525e+00  4.9632520362917791e+00  -1.9588687225664408e+01  6.8260895781318460e+00  -1.1002474766856972e+01  -1.1190934975606881e+00  -3.6259702273878260e+00  -3.9620935821195560e+00  -1.4858305646011333e+01  -2.6496273621578150e+00  8.5662130744038887e+00  5.5143525369545738e+00  -7.3320818685732343e+00  -6.3908996944566683e+00  -4.3324385130338792e+00  -3.1166480479763812e+00  -5.3370508658043398e+00  -3.4193591044231342e+00  9.2755671594338427e+00  -7.1256693729722071e+00  1.3817815549951904e+01  -1.7096451003814515e+01  -1.1896595268830490e+00  8.5695133627394970e-01  -1.2581752327964726e+00  -2.1931698096738992e+00  -1.3319520982917725e+01  9.1411789428433476e-02  -5.1255883798499013e+00  -7.0653502714641192e+00  -4.2261134308807371e+00  -6.9100864124010926e+00  -1.8094398416317979e+01  -1.0462072355022881e+01  -1.2453234286867737e+01  -1.0701181197195607e+01  -2.0746815720457605e+00  -6.4301618156939098e+00  3.7893401265977871e+00  3.0591951623593605e+00  5.0560109377112541e+00  1.0716678717081312e+01  -1.2088286042571280e+01  1.0570387010658555e+01  -2.6134306571315298e+00  1.1700836923219661e+01  9.7181584048942931e+00  1.4191128573376861e+00  -1.6902230266382819e+01  -1.8885866304257132e+01  5.8094522275069398e+00  7.0652243459039266e+00  2.5998583204455867e+00  4.4405275991978446e+00  -1.9920767459002654e+01  3.7267332265382938e+00  3.4823737761700433e+00  -2.2378121924017775e+00  -1.7986955437947518e+01  -5.3486845751402816e+00  4.0009126382513660e+00  -6.0828910722233029e+00  -7.2551021613689564e+00  2.4647168572556897e+00  1.3206878602642330e+01  -1.6824350604988556e+01  -1.5281528509758555e+01  -1.2928772214659620e-01  -7.8701023479707093e+00  -8.5910783165812106e+00  5.9122961563643974e+00  7.1173444397702497e+00  -2.3132457646589710e+00  -1.0676319386144021e+01  -1.5004322843654274e+01  -1.1866572865854261e+01  -1.1212968882234676e+01  -3.0709732719344105e+00  -1.8653309049255672e+01  -2.4732668555464816e+01  -7.9013696357277929e+00  -1.0190326697136712e+01  -3.8846599979642082e+00  9.9373716599236057e-03  9.0211940901627177e+00  2.2159934425933661e+00  -1.4778432719928627e+01  -1.9602736279466392e+01  -8.1742757224307177e+00  -6.6231494959276560e+00  4.8309641706041262e+00  1.2620679142707326e+01  6.2162070109817753e+00  3.4323911490609547e+00  5.2268339843696596e+00  1.3636707372855017e+01  -2.1378542194053757e+01  -5.3427563466651646e+00  8.5113398010596910e+00  6.1668621564821047e+00  -4.5571000765018663e+00  9.6476161366025592e-01  -8.1814213309726913e+00  -1.0253791120752018e+01  -9.6881455232253639e+00  -1.9710089033493468e+01  -8.1890857922959110e+00  -1.0203346368045874e+01  -2.2656541962384892e+01  -1.2536824899762054e+01  1.3218063218714024e+01  -9.5650763053569072e+00  7.0450587979624970e+00  -9.6974530880462098e+00  -4.0412397000598721e-01  -1.9054976580669575e+01  -2.0864758272715090e+01  -3.3311292766867000e+00  1.4445757219721788e+01  -1.3073318411424697e+00  1.2953792336444955e+01  4.7356519668660075e+00  1.4019626301986683e+00  1.1292117312252465e+00  -1.6329129991478939e+00  -9.0042590365066708e+00  2.0465356608020038e+00  2.7465137899218443e-02  8.1971998454634569e+00  -3.2106359955466357e+00  -1.5439233222541557e+01  8.3767566633835884e+00  -5.6628612065219253e+00  1.7479267604186088e+00  2.1765341918365109e+00  5.5004506764907370e+00  -1.2952381189538118e+00  -2.7365913619034621e+00  -1.8571578967507281e+00  -3.9421530410481647e+00  1.3376699364122455e+01  1.4271502904937515e+01  -1.6282270887389512e+01  -2.2431678084906697e+01  -9.2190181059586731e+00  7.95359351