<?xml version="1.0"?>
<VTKFile type="UnstructuredGrid"  version="0.1"  >
<UnstructuredGrid>
<Piece  NumberOfPoints="4978" NumberOfCells="9630">
<Points>
<DataArray  type="Float64"  NumberOfComponents="3"  format="ascii">0 1.5 0  0 0 0  0.06190941752361886 0 0  0.06190941752361886 0.02304324263930277 0  0.07687367483109155 0.06663263502519032 0  0.1051805799723963 0.1030013474942385 0  0.1437626405485843 0.128208265731708 0  0.1884388916338735 0.1395218290209338 0  0.2343679681997119 0.1357160372315063 0  0.2765727421371398 0.117203306956754 0  0.3104796713154951 0.0859897797765535 0  0.3324144138380889 0.04545792568865569 0  0.34 0 0  0.4722134970410927 0 0  0.4722134970410927 0.02388743731615415 0  0.4894717723551502 0.0684361811740563 0  0.5216574972706967 0.1037422395464312 0  0.5644238112906292 0.1250373336124665 0  0.6119948867302293 0.1294454429183545 0  0.6579459862509499 0.1163712278761581 0  0.6960711592386857 0.08758043367405244 0  0.7212213898225662 0.04696141660432988 0  0.73 0 0  0.85 0 0  0.857341522555727 0.04635254915624212 0  0.8786474508437579 0.08816778784387098 0  0.9118322121561291 0.1213525491562421 0  0.9536474508437579 0.142658477444273 0  1 0.15 0  1.046352549156242 0.142658477444273 0  1.088167787843871 0.1213525491562421 0  1.121352549156242 0.08816778784387097 0  1.142658477444273 0.04635254915624211 0  1.15 0 0  1.461909417523619 0 0  1.461909417523619 0.02304324263930277 0  1.476873674831092 0.06663263502519032 0  1.505180579972396 0.1030013474942385 0  1.543762640548584 0.128208265731708 0  1.588438891633874 0.1395218290209338 0  1.634367968199712 0.1357160372315063 0  1.67657274213714 0.117203306956754 0  1.710479671315495 0.0859897797765535 0  1.732414413838089 0.04545792568865569 0  1.74 0 0  1.78 0 0  1.789134456098646 0.04592201188381079 0  1.815147186257614 0.08485281374238571 0  1.854077988116189 0.1108655439013544 0  1.9 0.12 0  1.945922011883811 0.1108655439013544 0  1.984852813742386 0.08485281374238569 0  2.010865543901355 0.04592201188381077 0  2.02 0 0  2.161909417523619 0 0  2.161909417523619 0.02304324263930277 0  2.176873674831092 0.06663263502519032 0  2.205180579972396 0.1030013474942385 0  2.243762640548584 0.128208265731708 0  2.288438891633873 0.1395218290209338 0  2.334367968199712 0.1357160372315063 0  2.37657274213714 0.117203306956754 0  2.410479671315495 0.0859897797765535 0  2.432414413838089 0.04545792568865569 0  2.44 0 0  2.472213497041093 0 0  2.472213497041093 0.02388743731615415 0  2.48947177235515 0.0684361811740563 0  2.521657497270697 0.1037422395464312 0  2.564423811290629 0.1250373336124665 0  2.611994886730229 0.1294454429183545 0  2.65794598625095 0.1163712278761581 0  2.696071159238686 0.08758043367405244 0  2.721221389822567 0.04696141660432988 0  2.73 0 0  3 0 0  3 1.5 0  0 0.75 0  3 0.75 0  1.5 1.5 0  0 0.375 0  0 0.1875 0  0 0.09375 0  0.75 1.5 0  2.25 1.5 0  1.137279452465634 0.8667483509386543 0  2.055384907633385 0.8149748422668953 0  0.5545701656450307 0.9454298343549693 0  2.545804583542266 1.045804583542266 0  2.462951104370831 0.5854482317237805 0  1.6063536999151 1.018574336065804 0  0.7683179692414909 0.5511078775270282 0  1.647896012796697 0.5780189144999826 0  1.875 1.5 0  0.3683226130580748 0.5893782185394094 0  0.375 1.5 0  0 1.125 0  3 0.375 0  1.125 1.5 0  3 1.125 0  2.625 1.5 0  1.247216233241016 0.4851891764902285 0  0.8779404074027722 1.143194262378568 0  1.992337703792022 0.4642129848858538 0  2.200035536160075 1.144037289792772 0  1.3125 1.206118267007311 0  1.882280687299076 1.18026905614258 0  0.8375010042452264 0.8437030129736524 0  0.2703628106324028 0.8673582108832857 0  0.336944444033578 1.181320038574892 0  1.424720841531434 0.7792108746582741 0  2.763716218670896 0.5625 0  0.6112325230261646 1.216037756380734 0  2.429292395855053 1.293345775631689 0  2.798691155259055 0.9375 0  2.340750225085827 0.8450755885956063 0  2.74506315455788 1.24506315455788 0  0.4115012634770826 0.3359864655288552 0  1.6875 1.5 0  1.553212834656815 1.259295117559057 0  1.783849920010049 0.8130750647527071 0  2.590242300399914 0.800172794523538 0  2.206538789959823 0.6067588023913982 0  1.022769083327432 0.627137676743421 0  2.0625 1.5 0  2.566013274303806 0.3667751817948443 0  2.317230353528816 0.3853650267397287 0  0.9546600707351991 0.3912757388497677 0  1.76490060939521 0.3540000691256479 0  1.398169292756645 0.3089248951275104 0  0.1875 1.5 0  0.6961815191548208 0.3380429757712475 0  0.6390751493076395 0.7361434669345621 0  1.385952842918209 0.9972233609662619 0  1.082019261833385 1.265823315390121 0  2.784258672215756 0.3048233224522298 0  0 0.5625 0  0.2130557952202133 0.4325455696870932 0  2.110276358430479 0.2903936515686117 0  0 1.3125 0  0.5618175915722093 0.5022778936897083 0  1.438605690073396 0.5702366817214194 0  1.851778102902867 0.6169409446553686 0  0.9375 1.5 0  1.918499765346388 0.9737703250858507 0  1.066617221574711 1.060327143126178 0  0.17830064634795 0.65625 0  1.139464543633635 0.3182162642668528 0  1.214887260891528 0.6824917486258804 0  0.4470960700565646 0.7803305254813445 0  2.056073894593081 1.292965518236122 0  0.7800417460951754 1.309431349558015 0  0.7102942521579887 1.054059105222724 0  2.772203778896419 0.7508393899039921 0  3 0.9375 0  2.4375 1.5 0  0.5625 1.5 0  3 0.5625 0  1.3125 1.5 0  0 0.9375 0  3 1.3125 0  2.8125 1.5 0  3 0.1875 0  1.74009613212014 1.312845810865967 0  0.1858279553328271 1.04932632064409 0  1.582414108002925 0.3243096672004901 0  0.4576542986122824 1.328517530191622 0  1.30595470876181 0 0  0.1616828829631953 1.229471150973137 0  1.600689448835705 0.8342777580615786 0  2.184954406689295 0.9543424310663166 0  2.356848459734244 1.033731425282726 0  2.249618867339344 1.318565528322325 0  2.031012140730151 0.6383085966483963 0  1.264473591492607 0.1926369230867345 0  1.93294708275428 0.2969945700235964 0  1.406271966518558 1.353045118606616 0  0.2855042944080262 1.351202341158466 0  2.163692386827529 0.4469681835123645 0  2.058709899218631 1.05982604745508 0  1.21875 1.361760465218127 0  1.232585115983139 1.060656719142284 0  1.682328919476849 1.161572426192166 0  0.4864612871934715 1.100927295036068 0  2.842393003195402 0.1547034389615206 0  1.901710724058898 1.340659870484523 0  2.578488906869203 1.212378831230944 0  0.346730023619794 1.013455011579226 0  1.758789788261688 0.970834021568154 0  0.9209577900333827 0.984909924281538 0  2.461973640748163 0.2490632223012221 0  2.833434714842781 1.102015011431888 0  1.485476187845101 1.118115752354218 0  0.7869575052851041 0.2127716822913992 0  1.091585464669657 0.4673676525872368 0  0.9308375558444295 1.286291202675726 0  2.609275627299536 0.5207885309723005 0  2.859418780372727 0.4404724026784034 0  0.1368795735450182 0.2913992261536034 0  0.5088670694303536 0.6431238265444117 0  0.9924988599062848 0.7887715626383616 0  0.8674753477047706 0.6821390867986818 0  0.6993572585883594 0.9038049302516018 0  1.53924450853783 0.6818717864694561 0  1.27954362181495 0.818196911265721 0  2.885754890315292 0.65625 0  0.1199579452929171 0.84375 0  0.3101130847613819 0.7251157056441525 0  2.683488575489726 1.10528265125029 0  2.637912450120847 1.350340704724588 0  0.65625 1.387568746661148 0  2.204969505432462 0.7645924845263576 0  2.34230217156612 0.6870332922078795 0  2.458336421316689 0.930056573232228 0  1.547170662421109 0.4687109428674099 0  0.55426355401875 0.2785752421136156 0  1.927690911684502 0.7425770788416013 0  2.650983472818039 0.6639703826486528 0  0.2807744135836687 0.2731407085328489 0  2.697063502273202 0.4130460425434029 0  1.768721210125562 0.4985606178023466 0  1.59375 1.394491048145999 0  1.03125 1.39617417476255 0  2.649124789533757 0.9376608889715211 0  2.899345577629528 0.84375 0  2.448792339301353 1.151333513094988 0  2.455516477512143 0.7671738041202795 0  0.1479512725554237 1.367277900867101 0  1.733007556765436 0.6856365299097277 0  2.865 0 0  0.407900401917371 0.1920322062602331 0  1.482893533441057 0.9020086108979886 0  2.902194538181383 1.21875 0  2.860324471164851 1.360324471164851 0  0.9128790560808855 0.5311054613533476 0  0.7396036279203969 1.183264973390871 0  1.379392725427689 0.4456149894503371 0  0.8305263666170877 0.339868595109382 0  2.352639297837627 1.399880277695907 0  2.15625 1.5 0  2.32277762299786 1.203473773731512 0  1.818471673600783 0.235727380341035 0  1.269129800285538 0.3222823294390822 0  2.329228807632851 0.5297324129610972 0  0.430777275012463 0.469645907614299 0  1.390502090335328 0.1630587681988043 0  1.149408636841162 1.157447166816889 0  1.687853147042319 0.2519031106491252 0  0.3941048876243997 0.8956837842542459 0  1.877835046604575 0.410724628626283 0  1.348230251479045 0.6691802479050837 0  2.336954765206726 0.2613063289913201 0  2.514033953321691 1.393470229958569 0  0 0.46875 0  0.1287800079303892 0.5340043503292357 0  2.441328451749267 0.3721441168812449 0  0.9333932382689634 0.2670516659043625 0  1.13959172768211 0.5827503401695603 0  0.8703665929291606 1.395134656069543 0  1.240468926246127 0.9364063612525604 0  1.433475419570003 1.229904687600933 0  1.020534477629395 0.9101139083191684 0  1.108777781305164 0.7462713331880694 0  0.6468125623079457 0.6038935958199032 0  1.665312060212151 0.428962863572448 0  0.2512528931669099 0.5500044694745148 0  2.66971919386773 0.2450375495263612 0  2.901855502368762 0.2640467328343441 0  2.063534245742155 0.9373123558679215 0  2.031795413587333 0.1972457754676831 0  1.836924180675512 1.065887991891963 0  1.001601941364679 1.16852535211421 0  0.8051266927803291 0.9581030042697194 0  0.7620228346493961 0.7461373576581022 0  3 1.03125 0  2.084817260746984 1.176705869274554 0  2.085981885570153 0.5347538843754811 0  1.496744890324478 0.239335226969819 0  1.894594308711337 0.8570406362709689 0  1.78125 1.5 0  2.109375 1.394928085212741 0  2.71875 1.5 0  0.4943575340553394 1.217544978302146 0  0.5937185858435849 1.055241883498284 0  2.227680725187669 0.3075299344665331 0  0.5158109084499103 0.3891628929402524 0  1.96875 1.5 0  0.6036564600183
[...]
<PointData  Scalars="f_66"> 
<DataArray  type="Float64"  Name="f_66"  format="ascii">1.1106580669401788e+01  -3.0989618615130230e+01  -3.0293603720832138e+01  -2.9407161659268336e+01  -2.7286217325973013e+01  -2.5419283977366085e+01  -2.3632186705321399e+01  -2.3552507622506074e+01  -2.4814334387163939e+01  -2.5820427399425011e+01  -2.6434818100374368e+01  -2.6659599651610964e+01  -2.7788658472789248e+01  -2.4896954200875182e+01  -2.4908299127772739e+01  -2.4390887580807068e+01  -2.4246447310106742e+01  -2.4836532737504402e+01  -2.4828528810272879e+01  -2.4230571599148973e+01  -2.3650554792903673e+01  -2.3855853498308598e+01  -2.4043239983726370e+01  -2.4938035439499700e+01  -2.4130933427527296e+01  -2.4063979309971806e+01  -2.3488465429505240e+01  -2.2318494638011472e+01  -2.0769038284928069e+01  -2.0118013667497380e+01  -2.1283914970671713e+01  -2.2885031215467571e+01  -2.4727301199396216e+01  -2.6680149434211259e+01  -2.3861967762614000e+01  -2.3072701235618890e+01  -2.2491283324954761e+01  -2.1884588121561460e+01  -2.0708219680069771e+01  -1.9267809094102610e+01  -1.8103899684926976e+01  -1.8763517341698723e+01  -2.0571243484265704e+01  -2.2538929610706695e+01  -2.4359055347777819e+01  -2.4260692777915750e+01  -2.2407303624475631e+01  -2.0973770229280632e+01  -1.9346173109270097e+01  -1.7699956916961401e+01  -1.6933197253420911e+01  -1.7931223941981937e+01  -1.9823842221819888e+01  -2.1366790809167281e+01  -2.1264423049963678e+01  -2.0405844685585382e+01  -1.8317800066771984e+01  -1.6182126395260585e+01  -1.4404206648768630e+01  -1.3906270268171507e+01  -1.4587406316105747e+01  -1.5257976506598004e+01  -1.5502080517127094e+01  -1.6162603970002387e+01  -1.7635444808412593e+01  -1.7481099335670340e+01  -1.6616162618159819e+01  -1.4744860392112756e+01  -1.2538903641348655e+01  -1.0777785779584061e+01  -1.0269918481809411e+01  -1.0192879680688669e+01  -9.8274909200449851e+00  -8.8306202466241572e+00  -9.4856461070934994e+00  0.0000000000000000e+00  0.0000000000000000e+00  -9.9385043790676910e+00  0.0000000000000000e+00  1.4746423129386166e+01  -1.9599231434673808e+01  -2.4153708705733159e+01  -2.6976287827311186e+01  1.0065880970396710e+01  1.2027098885928321e+01  -3.4142250028633754e+00  -1.8509380950873047e+00  -3.1927302536742967e+00  2.7173833025324634e+00  -4.3909150923139331e+00  1.6018685999717626e+00  -1.2488871938315761e+01  -8.6651281107427618e+00  1.3778316269766947e+01  -1.2832086086287546e+01  1.0554186777695525e+01  5.1681659337921210e-02  0.0000000000000000e+00  1.2405455571907495e+01  0.0000000000000000e+00  1.0843506267863955e+01  -1.2428931021175318e+01  2.7017901520527041e+00  -9.6564445630581428e+00  5.1906813605624951e+00  5.4295525748556370e+00  5.9179928609118111e+00  -4.9099658661680738e+00  -6.0105354206266091e+00  2.2316862398854509e+00  -4.6544226089148717e+00  -2.3309691030621287e+00  3.8109033287345375e+00  7.7254593289756164e+00  6.7245097235667062e-01  -5.3011931625338093e-01  4.1695893451684221e+00  -1.9159910711863326e+01  1.2596823114943193e+01  7.2904432748501744e+00  -2.7146514793559655e+00  -6.8157293469016189e-01  -5.5010538555626205e+00  -9.7038770035265163e+00  1.4823677104894392e+01  -6.8592638968427808e+00  -9.1070354965465352e+00  -1.5794767096378054e+01  -1.3439139859248204e+01  -1.6272844227110308e+01  9.1471107801791813e+00  -1.8190731560843865e+01  -8.2353604681102262e+00  5.0763638504193243e-01  6.3036122721911525e+00  -4.4573480252949507e+00  -1.4851321645276261e+01  -1.7331078044728724e+01  -1.2785690269892992e+01  4.9829893046852591e+00  -1.4445019108099045e+01  -9.6616464910634914e+00  -6.9269819616986217e+00  1.2901482095165020e+01  1.2637513878749307e+00  1.1668095926452591e+00  -1.1753803609329784e+01  -1.6898486518725903e+01  -7.6941689700647187e+00  -7.7098069902633872e+00  8.6204945956440397e+00  6.5792285074700105e+00  2.7967803835905617e-03  -7.5930264216811916e-01  0.0000000000000000e+00  1.3640439150981196e+01  1.2014643739244946e+01  0.0000000000000000e+00  1.1854152153881362e+01  -4.9527072915587134e+00  0.0000000000000000e+00  6.7454704566217343e+00  0.0000000000000000e+00  8.9108897591051299e+00  -1.5341229953341076e+00  -1.5050260512663503e+01  6.2196550642671493e+00  -2.3456017811415201e+01  3.0587136537776631e+00  -2.7813547779039269e+00  1.2766221453199564e+00  2.8699855750708538e+00  8.9080017771888578e+00  -5.6744115630366379e+00  -1.9702281512336356e+01  -1.3807224893585696e+01  9.2529919596524923e+00  6.4958116363088836e+00  -9.0061079024188491e+00  3.3694094731172588e+00  9.1461732848831563e+00  1.6423890022596546e+00  5.1686255504106402e+00  5.6172214947192778e-01  -4.6943190042196274e+00  9.7164586084013838e+00  5.2577279760778701e+00  -2.0342407577607609e+00  8.4504306613104496e-01  -1.1239962054222037e+00  -1.0445114734703974e+01  1.7510598651278035e+00  3.6981516026298951e+00  -2.0920143249295634e+01  -1.3415308016473432e+01  6.4409800672345732e+00  -4.1255382261069729e+00  -2.1046842362701366e+00  -2.1027546879991206e+01  -1.1019706463871580e+01  -5.7883735042050342e+00  -8.8576724983341553e+00  -3.8121623711748533e+00  -6.6060514181013499e+00  -4.1600360682819844e+00  -7.2912026239183236e-01  -7.0733401046111064e+00  -9.5474166969409335e+00  2.9294827761671116e+00  7.2787236308779546e+00  8.3088316943756446e+00  -2.4220278325561027e+00  -3.3122980829922053e+00  1.0038164889580561e+00  -1.1699998315605226e+01  -2.0278514948968212e+01  -3.8257397531843997e+00  -2.0772192954703002e+00  -2.1117173322520298e+01  -4.5447666240857858e+00  -1.0011357068819944e+01  1.0648724160527101e+01  9.3258692257564171e+00  1.0352930453477103e+00  8.6678852637247422e-02  4.8153004875438432e+00  -1.5693463179799492e+00  6.4871046852072309e+00  -5.8165227666992623e+00  -5.3506511130856085e+00  -2.2754978110291642e+01  -1.5192500070732602e+00  1.8433013419897748e+00  3.8104251437244598e+00  -1.2475133429734758e+01  3.3260528782094227e+00  -1.2932604033730497e+01  -1.7583532594830306e+01  1.0581195546877090e+01  1.4219411190007110e+01  6.2490703698278667e+00  -1.6040552535511114e+01  -1.6387939582926670e+01  -6.2273508216717275e+00  -1.5692165298110881e+01  -1.9997203745523230e+01  3.7981910074724587e+00  -1.6220975948399470e+01  -4.9167687521276005e+00  -1.1510878898676774e+01  -7.5727428863026534e+00  -1.1517841720164526e+01  9.2387200246031131e+00  -1.7245348631974228e+01  -1.5062706835380361e+01  -8.2382855255564209e+00  -1.8959015381558853e+01  -1.0406203583992230e+01  9.1519112125660804e+00  -1.3855574229268774e+00  6.2984773359810804e+00  -2.6891254522142098e+00  -6.4753929204604699e+00  -1.1565533779482079e+01  -1.2131277185038783e+01  -1.4227294005539431e+01  -7.2522289274554774e+00  -2.3906530757917022e+00  7.4726292843580278e-01  -1.5488062400848534e+01  3.2024898433744955e+00  3.6805228225146620e+00  -2.1412305019526818e+00  -7.5941570721827798e+00  0.0000000000000000e+00  5.9502582654639893e+00  -7.6126596587469439e+00  -1.7635085382167187e+01  -1.3980911332674850e+00  1.5104781746239661e+01  1.1186246162641849e+01  1.1035314903976232e+01  3.5319909033339498e+00  -2.9862617001111291e-01  -1.1468281626137331e+01  -1.7502345055988425e+01  1.2593038576997138e+01  -5.6260942909786440e+00  -1.5061350921585150e+01  -2.1168809870836359e+01  -5.9297483078078308e+00  -8.6337424581260205e+00  4.5569642956403505e-02  5.9070181378842301e+00  6.5967743515671684e-01  3.7501913418248520e+00  2.8295348674481002e+00  -2.5358280920606218e+00  -1.7367558321994167e+01  0.0000000000000000e+00  -1.7993302432703800e+01  -1.4715697914725910e+01  -2.4056772907464432e+00  -2.3961294204186565e+00  -1.3969748652190322e+01  7.4848159432154340e+00  -1.1621796568117699e+00  -2.4502238224256843e+00  -4.0692766612980416e+00  1.1159490752674486e+00  6.2807732910891065e+00  -4.2897205668861460e+00  1.0820365308398340e+01  -2.6316262445480043e-01  -1.8620441620004890e+01  -1.1822063560376709e+01  -1.4985598624952724e+01  -9.7458451736632732e+00  -9.1908059633267296e+00  -9.9044678395581052e+00  -1.4089807129145766e+00  -8.9561553280933097e+00  -8.6381734911814743e+00  8.1431827581941398e+00  6.7639308481744145e+00  -1.0252781433206247e+01  2.7791700206572703e+00  -1.2392671549107657e+01  1.5829927092749370e+00  -1.9516618308540384e+01  9.4995430162007413e+00  0.0000000000000000e+00  -4.6515953570270483e+00  4.9259520095494924e+00  5.1459207562120675e+00  4.1690374509258926e-01  2.4994090305158756e+00  1.1091257313736147e+00  -3.4205500956542485e+00  1.3302593674865368e+00  1.1212552007642762e+01  -5.0873865943007663e+00  2.5784702560096545e-01  9.3853406588782349e+00  7.5279273251402730e+00  -1.4782165593142130e+01  -1.6319737057691331e+01  0.0000000000000000e+00  4.5255913232495457e+00  -2.2699919739548790e+01  -5.5209121812056194e+00  -8.4826329749424509e+00  -1.0151162797438692e+01  -6.8691594132988403e+00  -3.5515685817477975e+00  7.9408649296022666e+00  1.0911295447805360e+01  8.5852250322357904e+00  -7.2386950246154438e+00  5.8395321967886122e+00  8.8893738541465304e+00  4.6018264756802827e+00  7.1532269683674201e+00  9.4166931466239632e+00  3.1330517437903054e+00  -6.8715199335466508e+00  5.3984391007244859e-01  -4.0527140184785110e-01  1.1983261094895250e+00  9.8633139644198327e+00  -7.9836901077170328e+00  7.7790437148403573e+00  4.1162612615117418e+00  -4.9433001336230464e-01  -1.3440681355431387e+01  -1.7497387338581664e+01  -7.1875139895872264e+00  1.8649720857104710e+00  -1.2196137865174551e+01  2.5843146232065357e+00  3.4459514544870693e+00  -1.6338082248260579e+00  -9.6738936058862557e-01  -2.6024912777824366e-01  1.0101186144603879e+01  7.7564701086495003e+00  1.3611224865835606e+01  0.0000000000000000e+00  0.0000000000000000e+00  1.0925756446060564e+01  1.1741431273151735e+01  -7.4637220327927931e+00  0.0000000000000000e+00  -2.1918884563725708e+01  0.0000000000000000e+00  1.4048407536688808e+01  1.1661468369617493e+01  1.2537588509736109e+01  1.2915195430620413e+01  1.0542729530281173e+01  1.2247448493658887e+01  -1.8022471123786929e+01  5.6432958876079331e+00  -6.2310303105758924e-01  -5.5056094830668956e+00  -7.1773941945266948e+00  -1.7851477375244031e+01  -1.7149477561827812e+01  -1.1833717081565885e+01  -2.1543616021868517e+00  -5.6486624042421318e-01  -3.5502863419822410e+00  -2.1833195158062178e+01  -2.2907993739952531e+01  -3.1022217923414659e+00  2.1995680939292699e+00  4.5379354808933527e+00  3.6081122825070646e+00  -5.2688088626385827e+00  -2.5878430546251883e+00  1.0864583125322488e+01  8.1223249949500911e+00  9.0980743052901603e-01  -5.8170514401753861e+00  -1.3381319399732520e+01  -1.5967982882638083e+01  -1.1260061324839281e+01  -7.4942071313245417e+00  -1.4191007922528554e+01  -3.7461388810701242e+00  -1.2971911924477066e+01  7.9698847616574851e+00  -6.1437502257142782e+00  -1.5058235605262281e+01  -1.3811641558940916e+01  -1.7883436646818744e+01  8.1179179146795871e-02  -1.6170783869115109e+01  -8.4009921185244252e-02  4.4371713087232516e+00  -3.6484936859640160e+00  -8.5424467406727589e-01  1.1336062159609998e+01  -1.9630861485499004e+01  1.1644498369147222e+01  -9.5031957060966619e+00  -2.2649062214774897e+01  8.2630809443875979e+00  -1.8886120209790971e+00  -1.2570765469186959e+01  1.5016159907757478e+00  -2.2481073493138052e+01  -5.5832307696418306e+00  4.2942643865694414e+00  8.8246240998305208e+00  1.7548416222142524e+00  2.9577141337401081e-01  4.1642308543733195e+00  5.4491471627370451e+00  -3.9841163386798604e+00  -1.1911321942752119e+01  -2.5112468027834485e+00  2.8861074727033733e+00  1.1958631686454320e+00  5.2474285896702293e+00  7.6309590504693219e+00  -2.0576160456014598e+01  -8.3736721366698230e+00  8.5866250887919371e-01  5.0019432884510175e+00  6.9646843339116957e+00  -1.4140018144204561e+01  -1.0865407179152017e+01  -8.7598893305427534e+00  -2.4677997483627394e+01  5.8737220112791979e+00  -1.0203066449043952e+01  -8.0385725531859009e+00  -1.1111174547305035e+01  -3.0679137499597862e+00  -3.4584987987108589e+00  -3.7734668000178675e+00  2.2461437306563146e+00  -4.7966433855635229e+00  -6.5168013564226479e+00  1.7715904740805410e+00  -4.6037625644660771e+00  -6.2580210136037211e+00  -5.8597468641354788e-01  4.5991026920483682e+00  -2.5557272805211184e-01  4.0167073310008545e+00  7.7475893361628465e+00  -2.2559003408115554e+01  -6.8837188814272476e+00  2.3691021432917867e+00  7.1160889551275099e+00  -1.3614964009847098e+01  9.2300744545297615e+00  8.9882405436727790e+00  9.6178440179236429e+00  -4.8187381203670396e+00  9.9355729809957474e+00  -1.7841143839310451e+01  -2.0449773104207910e+01  -1.0046888756506274e+01  -5.4336077466690780e+00  -2.2073968654979225e+01  -4.0711167327866074e+00  8.7022183595172620e-01  -2.6478173794699953e+00  9.4298206089771028e+00  2.8363301155809855e+00  3.5585656170990312e+00  6.6128194432076670e+00  4.1956517194756549e+00  -1.8274035609582269e+00  -1.8536606289338253e+00  -4.9125191972522266e+00  -3.6540649984094506e+00  -4.6811968447626127e+00  -2.1074166034390434e+00  -2.2785258293027415e+01  2.0076000764456765e+00  -2.2284072940181993e+01  -9.6342926882361535e-01  -8.5543291773762444e+00  7.2080318760282296e+00  -1.5074951986362095e+01  -1.3117828079778334e+01  -1.4592801301901755e+01  5.6009062576806006e+00  2.6982793477579925e+00  2.1057847271781593e+00  -5.9522487951394156e+00  5.7462809495067093e+00  -4.6183454331611795e+00  -2.0942877852118059e+01  -2.3088776224517346e+01  -2.1094931025238242e+01  -2.6040704663648018e+01  -1.9360146600380926e+01  -1.1494562808971025e+00  6.9818594473356725e+00  -1.1951215827840342e+01  -1.0602637272884834e+00  -1.2150803707214521e+01  -1.9665440326372629e+01  -6.7728571884883078e+00  -1.4515984903517505e+00  -1.8633577031082673e+00  1.5029585139887607e+00  -5.7953308197714595e+00  2.1401186033064432e+00  6.4420861561174378e+00  1.1565527148974718e+01  -2.1948425820547307e+01  5.6957434512123655e+00  7.0245934620653498e+00  4.5814814321032227e+00  -6.0229842796502062e+00  -9.9882277383116236e+00  -1.5610929848398085e+01  -8.4909062378219442e+00  -2.9736047285047684e+00  -4.9508440403606375e+00  -1.8900774751485192e+00  -2.3377942481065008e+00  -1.2513166904261617e+01  -1.1887105933314054e+01  -1.5977275253655414e+01  -4.2348319229904110e+00  -3.6400202351857884e+00  3.3191641942955843e+00  -1.0632105838932931e+01  -1.3756106343365836e+01  2.1153994332719503e+00  -8.1358638022472327e+00  -2.1013603477525020e+01  1.5966701749178698e+00  2.0054489485510787e-01  7.6385822053203978e-01  7.5160541116276107e+00  -9.4013658045401414e+00  -1.0529680086636954e+01  3.7628214988980120e+00  -7.4837566093532661e+00  -4.7659790155223272e+00  -1.5581011839974184e+00  8.7205860388146768e+00  -1.0053513850598363e+00  -6.9467116017637460e+00  -1.3545079378991968e+01  -1.9642413041233347e+01  4.3566135044973526e+00  -1.2896881737628805e+00  1.0912087650974035e+01  -5.2938886913622496e-01  -9.3002202578378979e-01  4.7857736642883797e+00  2.1089164324052625e+00  2.7434275662675240e+00  -8.0436609316694252e+00  1.1374304279020020e+00  -2.2609351654882200e+01  1.0070246028745348e+01  9.4942710430168127e+00  7.4587718942603534e+00  -2.3014353001365920e-01  -1.8095534020057737e+01  -1.0236005617985320e+01  -1.3572621751052500e+01  -1.0422901555218768e+01  -1.9143261613842206e+01  -7.8544815157875938e+00  -1.0957002081591359e+01  4.0813761837927140e-03  5.0786610052191232e+00  6.2565519961829699e+00  -7.6940535017543823e+00  -8.6559198668032487e+00  -1.1820023040330652e+01  -1.5808137720549668e+01  -1.0287688459815501e+01  -1.4332617036112349e+01  -1.7709040748739334e+01  7.8753010465412574e+00  -9.5138842905892389e+00  -2.2036698171242147e+01  -7.6674838132409491e+00  -1.1231165855399903e+01  -1.4785953633315687e+01  -2.0580597883202105e+00  -1.2909390645706097e+01  -1.4901720744883765e+01  1.2255439828728854e+01  -1.8703182982571686e+01  -1.5930654475360940e+01  -1.7516335562578913e+01  8.9908914366742554e+00  3.0190421316842470e-01  1.1736187888055749e+01  -8.9788021222005323e+00  1.1091908182715521e+01  -2.5527552476697908e+00  -7.4064764202058759e+00  -3.4520201627902578e+00  -1.5945103344986034e+01  -8.6282713305507190e+00  -4.1858889373198016e+00  -5.3104809241053808e+00  -5.6334974701981215e+00  -1.0350456815795868e+00  1.0568146659514877e+01  -1.0906810242017480e+01  7.1363183085939017e+00  -5.9214587827837342e+00  -3.9190655679914590e+00  7.4790453507272074e+00  -1.1236080626987574e+01  5.3176706175168933e+00  7.6391399478091904e+00  4.0255991242235458e+00  2.9983385705934923e-01  3.4919021438659881e+00  -6.5883727808900456e+00  -1.1939759061692639e+01  1.6710796132017567e+00  -5.8933957954145333e+00  -1.9582378121651658e+01  -2.3626507757126216e+01  5.6761945887757737e+00  -2.4323522336007311e+01  -1.0927275523587376e+01  -2.0353741221340846e+00  -1.7938400467820853e-01  -3.0425217230076416e+00  -9.0051437726341295e+00  -1.3274882403515667e+01  -2.4371375394403930e+01  -1.8284297140338026e+01  -1.5065319349441207e+01  -1.4046324388978752e+01  -1.7410612842206415e+01  -7.5859779384454571e+00  -6.1904275892197935e-01  -2.9894464603098054e+00  -4.4865036450802940e+00  4.8510247552251871e+00  -1.9784423666954332e+01  -1.3248031771115222e+01  -3.5725836954174017e+00  3.5008743138479259e+00  -1.7976379702595846e+01  -2.5995638998041699e+01  -8.0407047743104005e+00  -1.7664654168384086e-02  -1.6815745311626365e+01  -2.5802267074333587e+00  -1.1425217078786780e+01  -6.8807801074425159e+00  -8.8147703811956357e-01  -1.4147768209761995e+01  5.9512056563997060e+00  -1.3548942395980397e+01  -7.2888407384404834e+00  -4.0952907217499046e-01  -4.8056220494390391e+00  8.1860388344003017e+00  1.2500919740948300e+01  1.1755922824569671e+01  6.6127151158969690e+00  -9.7685705965284502e+00  -2.7537024526944409e-01  8.8665531861598073e+00  3.5252650118942586e+00  5.0656074759518273e+00  -9.3565828130311779e+00  -1.6627603437750970e+01  -1.3389569051656544e+01  -1.6154018546814655e+01  -5.1265508645334004e+00  1.0529677047030154e+01  9.6483195273126245e+00  1.4359067958802795e+01  8.1704490245070427e-01  8.0902555931496121e+00  1.0889877275234950e+01  -1.2954540784008223e+01  4.9233775764246535e-01  -1.7346980732009907e+01  9.4300843779864785e+00  -2.9189355899415115e+00  -2.0968690715496617e+01  -1.9534597114943736e+01  5.5391699261991887e+00  -8.2195217062353603e+00  -4.2529251404080914e-01  -7.6340092558643879e-01  1.2412322795693091e+01  8.5460963966591432e+00  -1.6250626638984947e+01  -1.2949317408028191e+01  -1.0382874894000730e+01  -1.2767563175296488e+00  -4.4958041906456296e+00  2.7509029261642133e+00  -1.7473974707965194e+01  -1.5713159862767554e+01  3.0659119656307032e+00  2.6385992204513871e+00  -1.9978768951521584e+01  -1.5530236567605161e+01  5.4590891158300892e+00  -6.4795198668412564e+00  -3.2698626567713145e+00  1.2887867780064495e+00  -2.8126210207565201e+00  -1.8280795370744867e+00  -1.0180916744223138e+01  -1.6713473408125488e+01  -2.1157865915399526e+01  2.8706360788098944e+00  7.7865976848411380e+00  -5.6573406064124496e+00  -1.8937629904586364e+00  8.9301342037668370e+00  -2.4072268258606574e+01  -1.0652959570684260e+01  6.1362028274846185e+00  0.0000000000000000e+00  1.9301871259219932e+00  -4.1673870070655976e+00  -1.2011370965202962e+01  -7.4629134312970367e+00  -8.4865860959322212e+00  2.8935930555036458e+00  -1.2153869659133058e+01  -7.1350694014808891e+00  -1.8393720589442804e+01  -2.1703979345302566e+00  -4.2568166501748541e+00  1.1129441193012171e+01  3.2366201102589288e-02  -3.5484426248396548e+00  -3.5782116623943749e+00  -1.0165076590921858e+01  3.8780496248852292e+00  2.8364964990218486e+00  8.3645965414810934e+00  -1.6290262358181590e+01  1.5752365606065355e+00  -1.4881889792608529e+01  -1.5752770250536974e+00  6.4834165280104914e+00  -1.9196204954416171e+01  -6.9541733318501260e+00  -4.9631778452831474e+00  -6.5725784947807924e+00  1.4134553255951085e-01  -1.9180571172165511e+01  -3.6890192376012130e+00  -1.3628842567843401e+01  -6.1456803647939449e+00  -7.6712878066681247e+00  1.2275727267778839e+01  4.8699482522681894e+00  -1.6281983847762042e+01  -7.29174