<?xml version="1.0"?>
<VTKFile type="UnstructuredGrid"  version="0.1"  >
<UnstructuredGrid>
<Piece  NumberOfPoints="4978" NumberOfCells="9630">
<Points>
<DataArray  type="Float64"  NumberOfComponents="3"  format="ascii">0 1.5 0  0 0 0  0.06190941752361886 0 0  0.06190941752361886 0.02304324263930277 0  0.07687367483109155 0.06663263502519032 0  0.1051805799723963 0.1030013474942385 0  0.1437626405485843 0.128208265731708 0  0.1884388916338735 0.1395218290209338 0  0.2343679681997119 0.1357160372315063 0  0.2765727421371398 0.117203306956754 0  0.3104796713154951 0.0859897797765535 0  0.3324144138380889 0.04545792568865569 0  0.34 0 0  0.4722134970410927 0 0  0.4722134970410927 0.02388743731615415 0  0.4894717723551502 0.0684361811740563 0  0.5216574972706967 0.1037422395464312 0  0.5644238112906292 0.1250373336124665 0  0.6119948867302293 0.1294454429183545 0  0.6579459862509499 0.1163712278761581 0  0.6960711592386857 0.08758043367405244 0  0.7212213898225662 0.04696141660432988 0  0.73 0 0  0.85 0 0  0.857341522555727 0.04635254915624212 0  0.8786474508437579 0.08816778784387098 0  0.9118322121561291 0.1213525491562421 0  0.9536474508437579 0.142658477444273 0  1 0.15 0  1.046352549156242 0.142658477444273 0  1.088167787843871 0.1213525491562421 0  1.121352549156242 0.08816778784387097 0  1.142658477444273 0.04635254915624211 0  1.15 0 0  1.461909417523619 0 0  1.461909417523619 0.02304324263930277 0  1.476873674831092 0.06663263502519032 0  1.505180579972396 0.1030013474942385 0  1.543762640548584 0.128208265731708 0  1.588438891633874 0.1395218290209338 0  1.634367968199712 0.1357160372315063 0  1.67657274213714 0.117203306956754 0  1.710479671315495 0.0859897797765535 0  1.732414413838089 0.04545792568865569 0  1.74 0 0  1.78 0 0  1.789134456098646 0.04592201188381079 0  1.815147186257614 0.08485281374238571 0  1.854077988116189 0.1108655439013544 0  1.9 0.12 0  1.945922011883811 0.1108655439013544 0  1.984852813742386 0.08485281374238569 0  2.010865543901355 0.04592201188381077 0  2.02 0 0  2.161909417523619 0 0  2.161909417523619 0.02304324263930277 0  2.176873674831092 0.06663263502519032 0  2.205180579972396 0.1030013474942385 0  2.243762640548584 0.128208265731708 0  2.288438891633873 0.1395218290209338 0  2.334367968199712 0.1357160372315063 0  2.37657274213714 0.117203306956754 0  2.410479671315495 0.0859897797765535 0  2.432414413838089 0.04545792568865569 0  2.44 0 0  2.472213497041093 0 0  2.472213497041093 0.02388743731615415 0  2.48947177235515 0.0684361811740563 0  2.521657497270697 0.1037422395464312 0  2.564423811290629 0.1250373336124665 0  2.611994886730229 0.1294454429183545 0  2.65794598625095 0.1163712278761581 0  2.696071159238686 0.08758043367405244 0  2.721221389822567 0.04696141660432988 0  2.73 0 0  3 0 0  3 1.5 0  0 0.75 0  3 0.75 0  1.5 1.5 0  0 0.375 0  0 0.1875 0  0 0.09375 0  0.75 1.5 0  2.25 1.5 0  1.137279452465634 0.8667483509386543 0  2.055384907633385 0.8149748422668953 0  0.5545701656450307 0.9454298343549693 0  2.545804583542266 1.045804583542266 0  2.462951104370831 0.5854482317237805 0  1.6063536999151 1.018574336065804 0  0.7683179692414909 0.5511078775270282 0  1.647896012796697 0.5780189144999826 0  1.875 1.5 0  0.3683226130580748 0.5893782185394094 0  0.375 1.5 0  0 1.125 0  3 0.375 0  1.125 1.5 0  3 1.125 0  2.625 1.5 0  1.247216233241016 0.4851891764902285 0  0.8779404074027722 1.143194262378568 0  1.992337703792022 0.4642129848858538 0  2.200035536160075 1.144037289792772 0  1.3125 1.206118267007311 0  1.882280687299076 1.18026905614258 0  0.8375010042452264 0.8437030129736524 0  0.2703628106324028 0.8673582108832857 0  0.336944444033578 1.181320038574892 0  1.424720841531434 0.7792108746582741 0  2.763716218670896 0.5625 0  0.6112325230261646 1.216037756380734 0  2.429292395855053 1.293345775631689 0  2.798691155259055 0.9375 0  2.340750225085827 0.8450755885956063 0  2.74506315455788 1.24506315455788 0  0.4115012634770826 0.3359864655288552 0  1.6875 1.5 0  1.553212834656815 1.259295117559057 0  1.783849920010049 0.8130750647527071 0  2.590242300399914 0.800172794523538 0  2.206538789959823 0.6067588023913982 0  1.022769083327432 0.627137676743421 0  2.0625 1.5 0  2.566013274303806 0.3667751817948443 0  2.317230353528816 0.3853650267397287 0  0.9546600707351991 0.3912757388497677 0  1.76490060939521 0.3540000691256479 0  1.398169292756645 0.3089248951275104 0  0.1875 1.5 0  0.6961815191548208 0.3380429757712475 0  0.6390751493076395 0.7361434669345621 0  1.385952842918209 0.9972233609662619 0  1.082019261833385 1.265823315390121 0  2.784258672215756 0.3048233224522298 0  0 0.5625 0  0.2130557952202133 0.4325455696870932 0  2.110276358430479 0.2903936515686117 0  0 1.3125 0  0.5618175915722093 0.5022778936897083 0  1.438605690073396 0.5702366817214194 0  1.851778102902867 0.6169409446553686 0  0.9375 1.5 0  1.918499765346388 0.9737703250858507 0  1.066617221574711 1.060327143126178 0  0.17830064634795 0.65625 0  1.139464543633635 0.3182162642668528 0  1.214887260891528 0.6824917486258804 0  0.4470960700565646 0.7803305254813445 0  2.056073894593081 1.292965518236122 0  0.7800417460951754 1.309431349558015 0  0.7102942521579887 1.054059105222724 0  2.772203778896419 0.7508393899039921 0  3 0.9375 0  2.4375 1.5 0  0.5625 1.5 0  3 0.5625 0  1.3125 1.5 0  0 0.9375 0  3 1.3125 0  2.8125 1.5 0  3 0.1875 0  1.74009613212014 1.312845810865967 0  0.1858279553328271 1.04932632064409 0  1.582414108002925 0.3243096672004901 0  0.4576542986122824 1.328517530191622 0  1.30595470876181 0 0  0.1616828829631953 1.229471150973137 0  1.600689448835705 0.8342777580615786 0  2.184954406689295 0.9543424310663166 0  2.356848459734244 1.033731425282726 0  2.249618867339344 1.318565528322325 0  2.031012140730151 0.6383085966483963 0  1.264473591492607 0.1926369230867345 0  1.93294708275428 0.2969945700235964 0  1.406271966518558 1.353045118606616 0  0.2855042944080262 1.351202341158466 0  2.163692386827529 0.4469681835123645 0  2.058709899218631 1.05982604745508 0  1.21875 1.361760465218127 0  1.232585115983139 1.060656719142284 0  1.682328919476849 1.161572426192166 0  0.4864612871934715 1.100927295036068 0  2.842393003195402 0.1547034389615206 0  1.901710724058898 1.340659870484523 0  2.578488906869203 1.212378831230944 0  0.346730023619794 1.013455011579226 0  1.758789788261688 0.970834021568154 0  0.9209577900333827 0.984909924281538 0  2.461973640748163 0.2490632223012221 0  2.833434714842781 1.102015011431888 0  1.485476187845101 1.118115752354218 0  0.7869575052851041 0.2127716822913992 0  1.091585464669657 0.4673676525872368 0  0.9308375558444295 1.286291202675726 0  2.609275627299536 0.5207885309723005 0  2.859418780372727 0.4404724026784034 0  0.1368795735450182 0.2913992261536034 0  0.5088670694303536 0.6431238265444117 0  0.9924988599062848 0.7887715626383616 0  0.8674753477047706 0.6821390867986818 0  0.6993572585883594 0.9038049302516018 0  1.53924450853783 0.6818717864694561 0  1.27954362181495 0.818196911265721 0  2.885754890315292 0.65625 0  0.1199579452929171 0.84375 0  0.3101130847613819 0.7251157056441525 0  2.683488575489726 1.10528265125029 0  2.637912450120847 1.350340704724588 0  0.65625 1.387568746661148 0  2.204969505432462 0.7645924845263576 0  2.34230217156612 0.6870332922078795 0  2.458336421316689 0.930056573232228 0  1.547170662421109 0.4687109428674099 0  0.55426355401875 0.2785752421136156 0  1.927690911684502 0.7425770788416013 0  2.650983472818039 0.6639703826486528 0  0.2807744135836687 0.2731407085328489 0  2.697063502273202 0.4130460425434029 0  1.768721210125562 0.4985606178023466 0  1.59375 1.394491048145999 0  1.03125 1.39617417476255 0  2.649124789533757 0.9376608889715211 0  2.899345577629528 0.84375 0  2.448792339301353 1.151333513094988 0  2.455516477512143 0.7671738041202795 0  0.1479512725554237 1.367277900867101 0  1.733007556765436 0.6856365299097277 0  2.865 0 0  0.407900401917371 0.1920322062602331 0  1.482893533441057 0.9020086108979886 0  2.902194538181383 1.21875 0  2.860324471164851 1.360324471164851 0  0.9128790560808855 0.5311054613533476 0  0.7396036279203969 1.183264973390871 0  1.379392725427689 0.4456149894503371 0  0.8305263666170877 0.339868595109382 0  2.352639297837627 1.399880277695907 0  2.15625 1.5 0  2.32277762299786 1.203473773731512 0  1.818471673600783 0.235727380341035 0  1.269129800285538 0.3222823294390822 0  2.329228807632851 0.5297324129610972 0  0.430777275012463 0.469645907614299 0  1.390502090335328 0.1630587681988043 0  1.149408636841162 1.157447166816889 0  1.687853147042319 0.2519031106491252 0  0.3941048876243997 0.8956837842542459 0  1.877835046604575 0.410724628626283 0  1.348230251479045 0.6691802479050837 0  2.336954765206726 0.2613063289913201 0  2.514033953321691 1.393470229958569 0  0 0.46875 0  0.1287800079303892 0.5340043503292357 0  2.441328451749267 0.3721441168812449 0  0.9333932382689634 0.2670516659043625 0  1.13959172768211 0.5827503401695603 0  0.8703665929291606 1.395134656069543 0  1.240468926246127 0.9364063612525604 0  1.433475419570003 1.229904687600933 0  1.020534477629395 0.9101139083191684 0  1.108777781305164 0.7462713331880694 0  0.6468125623079457 0.6038935958199032 0  1.665312060212151 0.428962863572448 0  0.2512528931669099 0.5500044694745148 0  2.66971919386773 0.2450375495263612 0  2.901855502368762 0.2640467328343441 0  2.063534245742155 0.9373123558679215 0  2.031795413587333 0.1972457754676831 0  1.836924180675512 1.065887991891963 0  1.001601941364679 1.16852535211421 0  0.8051266927803291 0.9581030042697194 0  0.7620228346493961 0.7461373576581022 0  3 1.03125 0  2.084817260746984 1.176705869274554 0  2.085981885570153 0.5347538843754811 0  1.496744890324478 0.239335226969819 0  1.894594308711337 0.8570406362709689 0  1.78125 1.5 0  2.109375 1.394928085212741 0  2.71875 1.5 0  0.4943575340553394 1.217544978302146 0  0.5937185858435849 1.055241883498284 0  2.227680725187669 0.3075299344665331 0  0.5158109084499103 0.3891628929402524 0  1.96875 1.5 0  0.6036564600183
[...]
<PointData  Scalars="f_66"> 
<DataArray  type="Float64"  Name="f_66"  format="ascii">1.1823955186882589e+01  -2.9974474736775058e+01  -2.9273620640618613e+01  -2.8402380892899149e+01  -2.6380873865837685e+01  -2.4718325040740865e+01  -2.2654266477839233e+01  -2.2581546092578474e+01  -2.4070888734573618e+01  -2.4974454306574330e+01  -2.5818013202555019e+01  -2.5778723892091296e+01  -2.6728766431154007e+01  -2.3825099793397143e+01  -2.3855641089641015e+01  -2.3356914563195993e+01  -2.3346399729426938e+01  -2.4188315359747897e+01  -2.4034251319648057e+01  -2.3565836002728489e+01  -2.2675653783175527e+01  -2.2856336802632821e+01  -2.2969464450484796e+01  -2.3659203273902815e+01  -2.3115110898972915e+01  -2.3443350429044120e+01  -2.2831143617488625e+01  -2.1662796402547848e+01  -2.0012344040322645e+01  -1.9226983762590493e+01  -2.0661421238621031e+01  -2.2097841161660384e+01  -2.3822622965902816e+01  -2.5759742380435625e+01  -2.2808079934121221e+01  -2.1957044962873010e+01  -2.1796362891732038e+01  -2.1292073351828517e+01  -1.9967509867794114e+01  -1.8616978257991555e+01  -1.7188063300275051e+01  -1.8076943461107600e+01  -1.9908972908109764e+01  -2.1659872961747439e+01  -2.3417562569916615e+01  -2.3311527479715778e+01  -2.1487355890141462e+01  -2.0165775415800741e+01  -1.8669255273558637e+01  -1.7020966097418256e+01  -1.6114020539346910e+01  -1.7368320841274510e+01  -1.9128584018314434e+01  -2.0521633605797906e+01  -2.0412206181602031e+01  -1.9571865942106957e+01  -1.7617548992928921e+01  -1.5683909309210785e+01  -1.3829654204349296e+01  -1.3349820389246494e+01  -1.4098923681475140e+01  -1.4720786888222719e+01  -1.4825556791809223e+01  -1.5134752738659124e+01  -1.6626756038600590e+01  -1.6477930754412029e+01  -1.5621326998616118e+01  -1.4020571465518277e+01  -1.2223879112242367e+01  -1.0545464041634018e+01  -1.0253392021973013e+01  -1.0362640092649551e+01  -1.0409013177458846e+01  -8.4630383159220308e+00  -8.5444066043453120e+00  0.0000000000000000e+00  0.0000000000000000e+00  -9.5560151497768597e+00  0.0000000000000000e+00  1.5813570238388964e+01  -1.9161579302540918e+01  -2.3514019926841943e+01  -2.6044267963720920e+01  1.0936571845789329e+01  1.2953068373993736e+01  -3.0416534559558501e+00  -1.4627467450528551e+00  -2.8306123999526820e+00  3.1358802951044078e+00  -4.1805216813648487e+00  1.9998737995398437e+00  -1.2103648288372886e+01  -8.2922115343981737e+00  1.4584580708741798e+01  -1.2426502654984001e+01  1.1270142467399562e+01  4.0537970958783798e-01  0.0000000000000000e+00  1.3154620206065406e+01  0.0000000000000000e+00  1.1698789259829761e+01  -1.2025856175976834e+01  3.0711053014778957e+00  -9.3058891662292282e+00  5.6185251974444297e+00  5.8300660471879242e+00  6.3375463465514379e+00  -4.5408763915804302e+00  -5.6403785380716789e+00  2.5962932728872121e+00  -4.2761384649964684e+00  -2.3257265509112854e+00  4.1829893526242659e+00  8.2194724578378366e+00  8.4597052908034231e-01  -1.2375717835533916e-01  4.5188206682660805e+00  -1.8728094961964487e+01  1.3409137708459442e+01  7.7057529025678750e+00  -2.3352411464454756e+00  -3.0771250208495687e-01  -5.1890930166643185e+00  -9.3187804660912299e+00  1.5827022872000830e+01  -6.6658092534726920e+00  -8.8265972596438598e+00  -1.5416904949307327e+01  -1.3086859826899023e+01  -1.5853216771107540e+01  9.8460721794680435e+00  -1.7802266159087416e+01  -7.8493386034684249e+00  8.8878946683205984e-01  6.6827029910591165e+00  -4.6928476085399273e+00  -1.4447663676500072e+01  -1.6933805983990794e+01  -1.2474722050421811e+01  5.3523759031822564e+00  -1.4066400306568751e+01  -9.2800496064298628e+00  -6.5740395311208495e+00  1.3777636292837339e+01  1.6611740080297837e+00  1.5433614901567230e+00  -1.1368756571113227e+01  -1.6528260427561548e+01  -7.3064736074668000e+00  -7.3299388079229386e+00  9.0688544687239592e+00  6.9592116216516606e+00  3.8476423056033560e-01  -6.6115401076682956e-01  0.0000000000000000e+00  1.4826562990191290e+01  1.2925385534390900e+01  0.0000000000000000e+00  1.2651739968849490e+01  -4.5821727841345750e+00  0.0000000000000000e+00  7.4029852163634988e+00  0.0000000000000000e+00  9.3262784176129667e+00  -1.1829447052244360e+00  -1.4685766973276452e+01  6.6054461975050147e+00  -2.2460571506668245e+01  3.3990176554089362e+00  -2.3936952569863883e+00  1.6572965173110865e+00  3.3116073647525783e+00  9.4052543072343280e+00  -5.3044272571486442e+00  -1.9225180173529722e+01  -1.3461382337598261e+01  9.6651467950984777e+00  6.8915602016000905e+00  -8.7214720121688227e+00  3.7861646751994495e+00  9.6179511350915288e+00  2.0347068023476558e+00  5.5667884385693851e+00  9.1552070449340772e-01  -5.0172772265707737e+00  1.0178656329353521e+01  5.7649899591268792e+00  -1.6597262036351774e+00  1.2351639333945479e+00  -7.4061992430567580e-01  -1.0286625534136151e+01  2.0214916316425704e+00  4.0860383533252120e+00  -2.0449240623164645e+01  -1.3042482210615839e+01  6.8397800752242528e+00  -3.8581687195607919e+00  -2.1149455722407513e+00  -2.0557360338668303e+01  -1.0644172212811871e+01  -5.3983929657882337e+00  -8.4796137271508183e+00  -3.4268867839610775e+00  -6.2261921381954881e+00  -3.7665940276271850e+00  -5.7888433585945831e-01  -6.6979416175428499e+00  -9.1599476919179388e+00  3.3544807480105940e+00  7.8454223217114878e+00  8.7559521008800196e+00  -2.0778383629450090e+00  -2.9483934392759434e+00  1.3368679099452203e+00  -1.1327475784614768e+01  -1.9878736876792736e+01  -3.4545948178757602e+00  -1.7845464659425110e+00  -2.0668838487671589e+01  -4.5084971197873109e+00  -9.6524775018109690e+00  1.1139600992712472e+01  9.8487483335004242e+00  1.4494061040662118e+00  3.2228694499096283e-01  5.2317482278245766e+00  -1.2916177815152916e+00  6.8827750331287270e+00  -5.4402935315634586e+00  -5.6334553537398726e+00  -2.2248680001919777e+01  -1.1368835181479022e+00  2.2976158929606210e+00  4.2474549530140706e+00  -1.2090298463077282e+01  3.7009597343689862e+00  -1.2533371177954212e+01  -1.7179635793645613e+01  1.1194063653332261e+01  1.5153866823528746e+01  6.7247049634873504e+00  -1.5638778536895993e+01  -1.5952266926718499e+01  -5.9034817808684146e+00  -1.5284912239045807e+01  -1.9483941270693379e+01  4.1687174998932406e+00  -1.5823179846485623e+01  -4.5348327310896650e+00  -1.1177700357387913e+01  -7.1843148825010230e+00  -1.1267722993157788e+01  9.8149085363937072e+00  -1.6829562702545765e+01  -1.4657875504259277e+01  -8.0720575038731894e+00  -1.8545218513598758e+01  -1.0029300982634506e+01  9.6615906489188319e+00  -9.9346927791545048e-01  6.6795773604041990e+00  -2.3018487732418853e+00  -6.1005153481537322e+00  -1.1177991970963815e+01  -1.1767673339288525e+01  -1.3836622384369175e+01  -7.2605848376260553e+00  -2.5995908861105139e+00  1.1487488788249276e+00  -1.5117833613013268e+01  3.6037565917294705e+00  4.0727792505324620e+00  -1.7764672840160247e+00  -7.2155485784266409e+00  0.0000000000000000e+00  6.3794905612205328e+00  -7.2787591893998442e+00  -1.7184946305813792e+01  -1.0181181224477365e+00  1.6175729937334605e+01  1.1817762452542510e+01  1.2361245575684700e+01  3.8808250106816904e+00  6.8748315449112432e-02  -1.1193862138051148e+01  -1.7118765157873849e+01  1.3506596109884960e+01  -5.2493401657331331e+00  -1.4673720404920314e+01  -2.0749026453289865e+01  -5.7516485397250721e+00  -8.2604269363409379e+00  2.6793723832214794e-01  6.3970434266224885e+00  9.5680468964778065e-01  4.1638312367036132e+00  3.2211945299244857e+00  -2.2611673251689899e+00  -1.6946303653628565e+01  0.0000000000000000e+00  -1.7566674804632257e+01  -1.4325389233720927e+01  -2.0227812851684432e+00  -2.0295575706096134e+00  -1.3578106046959174e+01  7.9327142078473525e+00  -1.0592510163374784e+00  -2.0878960269115745e+00  -3.7031893762251680e+00  1.5033345238166591e+00  6.6772148143897025e+00  -3.9555481062311872e+00  1.1326042353025832e+01  1.0888282308567077e-01  -1.8169205578640444e+01  -1.1484569598904550e+01  -1.4589716852068969e+01  -9.3487996075528788e+00  -8.8145762777546750e+00  -9.5185625895564989e+00  -1.0218467342981536e+00  -8.6142248867298026e+00  -8.4921965181991172e+00  8.5779883073532570e+00  7.1922240929569723e+00  -9.8585865250397351e+00  3.1726322929352304e+00  -1.1991131669312606e+01  1.8729923512258984e+00  -1.9080438658587973e+01  1.0349684304569776e+01  0.0000000000000000e+00  -4.2854931984517721e+00  5.3333670777383411e+00  5.5487943917845453e+00  7.7109248000684782e-01  2.8479057609702045e+00  1.4497944380508461e+00  -3.0609733230190570e+00  1.7210288071385345e+00  1.1802291801523721e+01  -4.7060930686248437e+00  6.2096594132664684e-01  1.0044143704582373e+01  7.9985312329726623e+00  -1.4385390925124591e+01  -1.5943724509669332e+01  0.0000000000000000e+00  4.9003271284039291e+00  -2.2075423330812519e+01  -5.1562648093798336e+00  -8.1124332731814039e+00  -9.7663419348040836e+00  -7.1678600521110738e+00  -3.1666227867895649e+00  8.3713022623059192e+00  1.1414250614979325e+01  9.0163271928914988e+00  -6.9917207038559530e+00  6.2295804904007426e+00  9.4084122616431234e+00  4.9607356500544020e+00  7.6510809637641444e+00  9.8792233509756358e+00  3.5602335413213417e+00  -6.4928626575084420e+00  9.1495313650565357e-01  -2.2871174655507458e-02  1.6311657776813113e+00  1.0319646111438237e+01  -7.6144242101544428e+00  8.2059203294320362e+00  4.4853260787502958e+00  -1.2722394001146170e-01  -1.3055397320810169e+01  -1.6879402238865552e+01  -6.8006944308640982e+00  2.2474603943721250e+00  -1.1814013854293698e+01  2.9550557092418912e+00  3.8494207502744713e+00  -1.5499829048642697e+00  -6.8072463341061340e-01  -6.5891825621757757e-02  1.0611511823636524e+01  8.1711057482839138e+00  1.4537630793685993e+01  0.0000000000000000e+00  0.0000000000000000e+00  1.1760140608790527e+01  1.2529819482783394e+01  -7.0988717367923515e+00  0.0000000000000000e+00  -2.1454589485384311e+01  0.0000000000000000e+00  1.5039654417633466e+01  1.2571585576396060e+01  1.3318296272312413e+01  1.3692129497312628e+01  1.1488302572289333e+01  1.3091618103750028e+01  -1.7634853223658546e+01  6.0028530831598257e+00  -2.2388707723695481e-01  -5.1223079544972210e+00  -6.8747616249497865e+00  -1.7379674547375473e+01  -1.6724170883284319e+01  -1.1446705767398434e+01  -1.7721803600190023e+00  -1.7253479331329727e-01  -3.1672119441050079e+00  -2.1103539713391328e+01  -2.2183799794444301e+01  -2.8407108527994644e+00  2.6616982628017283e+00  4.8903835537481966e+00  3.9465588983591644e+00  -4.9049732786383631e+00  -2.6720465566900087e+00  1.1510852425101714e+01  8.6150169923714408e+00  1.2576664908540387e+00  -5.4546783793747968e+00  -1.3035221150342940e+01  -1.5552226897450831e+01  -1.0860876698782615e+01  -7.1341139688769646e+00  -1.3827949765217538e+01  -3.3689476299062711e+00  -1.2573164036689477e+01  8.3896395003738107e+00  -5.7564902533218865e+00  -1.4648124070025666e+01  -1.3472345330485066e+01  -1.7431976047240891e+01  4.6758565619513581e-01  -1.5778666052605208e+01  5.2849211732655069e-02  4.8998507477109907e+00  -3.3836796069769317e+00  -4.9894972553240441e-01  1.1932709992452763e+01  -1.9222643791850057e+01  1.2287245964026548e+01  -9.1753851065193803e+00  -2.2150765802998922e+01  8.8019104433998852e+00  -1.5278076168996886e+00  -1.2259411458005053e+01  1.8661359700148141e+00  -2.1979624337868184e+01  -5.6296482752773986e+00  4.6903604896604598e+00  9.6380355867770611e+00  2.1111545305175703e+00  6.6852575001724523e-01  4.6047911481640798e+00  5.9734747458394848e+00  -3.6024566291302502e+00  -1.1526405771744463e+01  -2.4420975666812308e+00  3.1704722512487420e+00  1.4153568344412082e+00  5.5789050694659403e+00  8.0202232323130112e+00  -2.0148915873635001e+01  -7.9977706446231460e+00  1.2538775753888276e+00  5.4252076736014727e+00  7.3690991256459313e+00  -1.3722042041232143e+01  -1.0588488823284367e+01  -8.4705379220541506e+00  -2.3956273588900164e+01  6.3180013785278186e+00  -9.8168244273359555e+00  -7.6492501699542910e+00  -1.0730750827104453e+01  -3.1362998080417013e+00  -3.3458181186753526e+00  -3.9182965041822677e+00  2.6586302771201216e+00  -4.4181836389537850e+00  -6.1360991242905332e+00  2.1430546296141046e+00  -5.2462567569868988e+00  -5.8647277563668219e+00  -1.9629117319702449e-01  4.9821623974934459e+00  4.3641704417993733e-02  4.3440927345746543e+00  8.1820234658936553e+00  -2.2054418179819645e+01  -7.0149270650374618e+00  2.7211072690327378e+00  7.5806815861258183e+00  -1.3279155202824173e+01  9.9131689115121517e+00  9.4379100034252197e+00  1.0231397487295396e+01  -5.1187219432389197e+00  1.0473191844796512e+01  -1.7415063040907938e+01  -1.9997932592529857e+01  -9.6687839076447837e+00  -5.1975823869330737e+00  -2.1553593968439902e+01  -3.6952928005632817e+00  1.2623723200382777e+00  -2.4701444527239369e+00  9.9127918663519026e+00  3.1334942887801489e+00  3.9597204675883404e+00  7.0239516527225883e+00  4.6959526616599003e+00  -1.4633347316697123e+00  -1.4626455235604165e+00  -4.5604860771190197e+00  -3.3014959710384124e+00  -4.3786227254398069e+00  -1.7540218220731962e+00  -2.1700562985172468e+01  2.3703202069154217e+00  -2.1660420127194545e+01  -5.7216192571847535e-01  -8.4170035804433443e+00  7.9017821259304508e+00  -1.4705317830355169e+01  -1.2735514666704006e+01  -1.4217158773985005e+01  5.9993343875634002e+00  3.0976879758979252e+00  2.4846623009974369e+00  -5.6295041141569406e+00  6.1213157729493108e+00  -4.8635736579190167e+00  -2.0433930043100855e+01  -2.2529422519053060e+01  -2.0639529785216521e+01  -2.5200440917247651e+01  -1.8923185893891933e+01  -7.9478787409576135e-01  7.3778717960112425e+00  -1.1612773293046144e+01  -1.0403961552236696e+00  -1.1836309844895176e+01  -1.9247379546388860e+01  -6.3956371713133002e+00  -1.4054264992733587e+00  -1.4906497272043808e+00  1.9079979753505147e+00  -5.5944058593727899e+00  2.5393285251039903e+00  6.8080384779689087e+00  1.2169274963674420e+01  -2.1121258859833507e+01  6.0920686569878830e+00  7.4090383993949107e+00  4.9615786505665689e+00  -5.6492193846189922e+00  -9.7784246377686319e+00  -1.5216817286308684e+01  -8.1096196868533337e+00  -2.6029904516226363e+00  -4.5747496700722330e+00  -1.5084802735102039e+00  -1.9487376561651129e+00  -1.2136662768154824e+01  -1.1494604583638633e+01  -1.5593573854253419e+01  -3.8489808612878615e+00  -3.2546522897917405e+00  3.8115257827066582e+00  -1.0263680350702421e+01  -1.3374266526453493e+01  2.3762607250699670e+00  -7.7570290473680501e+00  -2.0421277450882606e+01  1.9667956718251340e+00  6.0553338334304874e-01  1.0189131329215722e+00  7.9287934797620601e+00  -9.0120984497637036e+00  -1.0360193214392776e+01  4.1812658216553196e+00  -7.1873571453731495e+00  -4.3828860259370481e+00  -1.2074395426754965e+00  9.3360461836173663e+00  -6.1988221697213919e-01  -6.8098754232001575e+00  -1.3175084398175205e+01  -1.9242361760365153e+01  4.7311421676884118e+00  -1.3161211989947901e+00  1.1479777556242874e+01  -4.2425199921508944e-01  -8.4094949811433739e-01  5.2753952804545543e+00  2.6085582463929349e+00  3.2152070851668166e+00  -7.6635435016691513e+00  1.5230043771378601e+00  -2.2007556776513802e+01  1.0804851023871320e+01  1.0079875257087211e+01  7.8807885552467507e+00  1.6171295789182596e-01  -1.7659391216651979e+01  -9.8574189952267393e+00  -1.3186256211480927e+01  -1.0056306528695636e+01  -1.8720313010249075e+01  -7.4778473340347009e+00  -1.0567189563095845e+01  3.5390180461084852e-01  5.5362504675645496e+00  6.7151570612501645e+00  -7.3878135992913645e+00  -8.3057932288016616e+00  -1.1462447102539057e+01  -1.5395005129791624e+01  -9.9453816856032748e+00  -1.3943949332707382e+01  -1.7329179189413317e+01  8.3550241302266404e+00  -9.1360667364684751e+00  -2.1241560600947082e+01  -7.2908940566048894e+00  -1.0833451682623036e+01  -1.4371774108408001e+01  -2.0622609781631991e+00  -1.2525041989130802e+01  -1.4521250813315326e+01  1.2931988942811710e+01  -1.8285556813193445e+01  -1.5538818551766873e+01  -1.7119470992397428e+01  9.4226958171908723e+00  5.5974613040418542e-01  1.2503361248511890e+01  -8.9144703012715123e+00  1.1690463349855643e+01  -2.1814519256304443e+00  -7.0339260396385761e+00  -3.0939285692836136e+00  -1.5547588824266498e+01  -8.2366089347119953e+00  -3.8174518820921768e+00  -4.9304848071853113e+00  -5.4482432631334792e+00  -7.3674493325747525e-01  1.1236087718479070e+01  -1.0528800855136414e+01  7.5585052788990970e+00  -6.1622450909375290e+00  -3.5379368476805673e+00  7.8828962350944884e+00  -1.0847209185003885e+01  5.7383091517004656e+00  8.0446725697552051e+00  4.3891416695552508e+00  5.0150999773182403e-01  3.8790155903306114e+00  -6.2222582985501420e+00  -1.1594653135282096e+01  2.0656640551405330e+00  -5.5074126626901885e+00  -1.9010156098821657e+01  -2.2865238245084630e+01  6.1334808654209247e+00  -2.3226345851423332e+01  -1.0614743862673269e+01  -1.6472484108437719e+00  1.9963120737959952e-01  -2.6640581913795560e+00  -8.6285925420240090e+00  -1.2985099505440234e+01  -2.3738902335392822e+01  -1.7879290802505082e+01  -1.4680821814914214e+01  -1.3640580215060595e+01  -1.6985925072908216e+01  -7.3290692516635838e+00  -2.5111546983931671e-01  -2.6894234016350818e+00  -4.1084576669211410e+00  5.2692135686207964e+00  -1.9326994710856738e+01  -1.2859661240690723e+01  -3.2058078482350951e+00  3.8972006777040731e+00  -1.7574284033341989e+01  -2.4935025868238945e+01  -7.6459866810456711e+00  1.4443915922101683e-01  -1.6429595772025539e+01  -2.1874135317806505e+00  -1.1030805766616059e+01  -6.5126868795788395e+00  -8.3179718064306285e-01  -1.3761750007919858e+01  6.4764925945848315e+00  -1.3185871211434296e+01  -6.9379254156282109e+00  -2.6806479172273090e-01  -4.6032889549317941e+00  8.6318213955097267e+00  1.3146106918788753e+01  1.2538271957366678e+01  7.1536062656907013e+00  -9.3799341339005373e+00  -1.5207718364347803e-01  9.4126703135073360e+00  3.9094444409082794e+00  5.4457143902958851e+00  -8.9708507913412685e+00  -1.6220337711536221e+01  -1.2995677343557842e+01  -1.5771475043936899e+01  -4.7673759961057334e+00  1.1208503542801591e+01  1.0166805560898817e+01  1.5563143943120297e+01  1.2243432771439524e+00  8.6669699190439822e+00  1.1625819640141481e+01  -1.2622543447638440e+01  8.5683600015512806e-01  -1.6865729608849264e+01  9.8929581074299353e+00  -2.5336912993647527e+00  -2.0410323911765527e+01  -1.9046633078603470e+01  5.9099880652739358e+00  -8.2585671106114127e+00  -4.9552569875358179e-02  -3.9658822146002376e-01  1.3061379470806008e+01  8.9618800932564611e+00  -1.5701644001216405e+01  -1.2563544460848984e+01  -1.0003821309148265e+01  -9.2411620930003724e-01  -4.3026144689497379e+00  3.1309388029285175e+00  -1.6896739454183756e+01  -1.5324733478467511e+01  3.4260043619016649e+00  3.0417987327944207e+00  -1.9459633357411821e+01  -1.5137335632597859e+01  5.8419345353816272e+00  -6.0953996537400590e+00  -2.8904705702043128e+00  1.7166529685349834e+00  -2.3115424359084300e+00  -1.4532893401761899e+00  -9.8412962837284734e+00  -1.6086996369546956e+01  -2.0644541115060239e+01  3.2599150728868818e+00  8.1737489805990364e+00  -5.2762026808647251e+00  -2.0218622300802189e+00  9.4747669492501405e+00  -2.3533713468565455e+01  -1.0385658416353250e+01  6.5676331920330586e+00  0.0000000000000000e+00  2.2902260096801572e+00  -3.7909862866092592e+00  -1.1635757320001003e+01  -7.3124852720062714e+00  -8.2492804401640001e+00  3.2779795936981819e+00  -1.1788382688305804e+01  -6.7671143874144066e+00  -1.7899461084937194e+01  -1.7793862991001752e+00  -3.8685505584815778e+00  1.1940746266304631e+01  4.1953466776332926e-01  -3.8182416790236280e+00  -3.7850284252067299e+00  -9.8909332106165326e+00  4.2779362375942265e+00  3.2286318920387158e+00  8.8723723238157000e+00  -1.5882124985952919e+01  1.9552223695088045e+00  -1.4537327343069300e+01  -1.1961350481340518e+00  6.8983454194152394e+00  -1.8390005281620986e+01  -6.5759563753940729e+00  -4.5896481778024842e+00  -6.1896449474586177e+00  4.8759705026808492e-01  -1.8790540633809780e+01  -3.3618420598474632e+00  -1.3228215646480939e+01  -5.7734059667413549e+00  -7.2838275269825647e+00  1.2909672344508726e+01  5.2518931668477880e+00  -1.5849260825907127e+01  -6.916061166905