<?xml version="1.0"?>
<VTKFile type="UnstructuredGrid"  version="0.1"  >
<UnstructuredGrid>
<Piece  NumberOfPoints="4978" NumberOfCells="9630">
<Points>
<DataArray  type="Float64"  NumberOfComponents="3"  format="ascii">0 1.5 0  0 0 0  0.06190941752361886 0 0  0.06190941752361886 0.02304324263930277 0  0.07687367483109155 0.06663263502519032 0  0.1051805799723963 0.1030013474942385 0  0.1437626405485843 0.128208265731708 0  0.1884388916338735 0.1395218290209338 0  0.2343679681997119 0.1357160372315063 0  0.2765727421371398 0.117203306956754 0  0.3104796713154951 0.0859897797765535 0  0.3324144138380889 0.04545792568865569 0  0.34 0 0  0.4722134970410927 0 0  0.4722134970410927 0.02388743731615415 0  0.4894717723551502 0.0684361811740563 0  0.5216574972706967 0.1037422395464312 0  0.5644238112906292 0.1250373336124665 0  0.6119948867302293 0.1294454429183545 0  0.6579459862509499 0.1163712278761581 0  0.6960711592386857 0.08758043367405244 0  0.7212213898225662 0.04696141660432988 0  0.73 0 0  0.85 0 0  0.857341522555727 0.04635254915624212 0  0.8786474508437579 0.08816778784387098 0  0.9118322121561291 0.1213525491562421 0  0.9536474508437579 0.142658477444273 0  1 0.15 0  1.046352549156242 0.142658477444273 0  1.088167787843871 0.1213525491562421 0  1.121352549156242 0.08816778784387097 0  1.142658477444273 0.04635254915624211 0  1.15 0 0  1.461909417523619 0 0  1.461909417523619 0.02304324263930277 0  1.476873674831092 0.06663263502519032 0  1.505180579972396 0.1030013474942385 0  1.543762640548584 0.128208265731708 0  1.588438891633874 0.1395218290209338 0  1.634367968199712 0.1357160372315063 0  1.67657274213714 0.117203306956754 0  1.710479671315495 0.0859897797765535 0  1.732414413838089 0.04545792568865569 0  1.74 0 0  1.78 0 0  1.789134456098646 0.04592201188381079 0  1.815147186257614 0.08485281374238571 0  1.854077988116189 0.1108655439013544 0  1.9 0.12 0  1.945922011883811 0.1108655439013544 0  1.984852813742386 0.08485281374238569 0  2.010865543901355 0.04592201188381077 0  2.02 0 0  2.161909417523619 0 0  2.161909417523619 0.02304324263930277 0  2.176873674831092 0.06663263502519032 0  2.205180579972396 0.1030013474942385 0  2.243762640548584 0.128208265731708 0  2.288438891633873 0.1395218290209338 0  2.334367968199712 0.1357160372315063 0  2.37657274213714 0.117203306956754 0  2.410479671315495 0.0859897797765535 0  2.432414413838089 0.04545792568865569 0  2.44 0 0  2.472213497041093 0 0  2.472213497041093 0.02388743731615415 0  2.48947177235515 0.0684361811740563 0  2.521657497270697 0.1037422395464312 0  2.564423811290629 0.1250373336124665 0  2.611994886730229 0.1294454429183545 0  2.65794598625095 0.1163712278761581 0  2.696071159238686 0.08758043367405244 0  2.721221389822567 0.04696141660432988 0  2.73 0 0  3 0 0  3 1.5 0  0 0.75 0  3 0.75 0  1.5 1.5 0  0 0.375 0  0 0.1875 0  0 0.09375 0  0.75 1.5 0  2.25 1.5 0  1.137279452465634 0.8667483509386543 0  2.055384907633385 0.8149748422668953 0  0.5545701656450307 0.9454298343549693 0  2.545804583542266 1.045804583542266 0  2.462951104370831 0.5854482317237805 0  1.6063536999151 1.018574336065804 0  0.7683179692414909 0.5511078775270282 0  1.647896012796697 0.5780189144999826 0  1.875 1.5 0  0.3683226130580748 0.5893782185394094 0  0.375 1.5 0  0 1.125 0  3 0.375 0  1.125 1.5 0  3 1.125 0  2.625 1.5 0  1.247216233241016 0.4851891764902285 0  0.8779404074027722 1.143194262378568 0  1.992337703792022 0.4642129848858538 0  2.200035536160075 1.144037289792772 0  1.3125 1.206118267007311 0  1.882280687299076 1.18026905614258 0  0.8375010042452264 0.8437030129736524 0  0.2703628106324028 0.8673582108832857 0  0.336944444033578 1.181320038574892 0  1.424720841531434 0.7792108746582741 0  2.763716218670896 0.5625 0  0.6112325230261646 1.216037756380734 0  2.429292395855053 1.293345775631689 0  2.798691155259055 0.9375 0  2.340750225085827 0.8450755885956063 0  2.74506315455788 1.24506315455788 0  0.4115012634770826 0.3359864655288552 0  1.6875 1.5 0  1.553212834656815 1.259295117559057 0  1.783849920010049 0.8130750647527071 0  2.590242300399914 0.800172794523538 0  2.206538789959823 0.6067588023913982 0  1.022769083327432 0.627137676743421 0  2.0625 1.5 0  2.566013274303806 0.3667751817948443 0  2.317230353528816 0.3853650267397287 0  0.9546600707351991 0.3912757388497677 0  1.76490060939521 0.3540000691256479 0  1.398169292756645 0.3089248951275104 0  0.1875 1.5 0  0.6961815191548208 0.3380429757712475 0  0.6390751493076395 0.7361434669345621 0  1.385952842918209 0.9972233609662619 0  1.082019261833385 1.265823315390121 0  2.784258672215756 0.3048233224522298 0  0 0.5625 0  0.2130557952202133 0.4325455696870932 0  2.110276358430479 0.2903936515686117 0  0 1.3125 0  0.5618175915722093 0.5022778936897083 0  1.438605690073396 0.5702366817214194 0  1.851778102902867 0.6169409446553686 0  0.9375 1.5 0  1.918499765346388 0.9737703250858507 0  1.066617221574711 1.060327143126178 0  0.17830064634795 0.65625 0  1.139464543633635 0.3182162642668528 0  1.214887260891528 0.6824917486258804 0  0.4470960700565646 0.7803305254813445 0  2.056073894593081 1.292965518236122 0  0.7800417460951754 1.309431349558015 0  0.7102942521579887 1.054059105222724 0  2.772203778896419 0.7508393899039921 0  3 0.9375 0  2.4375 1.5 0  0.5625 1.5 0  3 0.5625 0  1.3125 1.5 0  0 0.9375 0  3 1.3125 0  2.8125 1.5 0  3 0.1875 0  1.74009613212014 1.312845810865967 0  0.1858279553328271 1.04932632064409 0  1.582414108002925 0.3243096672004901 0  0.4576542986122824 1.328517530191622 0  1.30595470876181 0 0  0.1616828829631953 1.229471150973137 0  1.600689448835705 0.8342777580615786 0  2.184954406689295 0.9543424310663166 0  2.356848459734244 1.033731425282726 0  2.249618867339344 1.318565528322325 0  2.031012140730151 0.6383085966483963 0  1.264473591492607 0.1926369230867345 0  1.93294708275428 0.2969945700235964 0  1.406271966518558 1.353045118606616 0  0.2855042944080262 1.351202341158466 0  2.163692386827529 0.4469681835123645 0  2.058709899218631 1.05982604745508 0  1.21875 1.361760465218127 0  1.232585115983139 1.060656719142284 0  1.682328919476849 1.161572426192166 0  0.4864612871934715 1.100927295036068 0  2.842393003195402 0.1547034389615206 0  1.901710724058898 1.340659870484523 0  2.578488906869203 1.212378831230944 0  0.346730023619794 1.013455011579226 0  1.758789788261688 0.970834021568154 0  0.9209577900333827 0.984909924281538 0  2.461973640748163 0.2490632223012221 0  2.833434714842781 1.102015011431888 0  1.485476187845101 1.118115752354218 0  0.7869575052851041 0.2127716822913992 0  1.091585464669657 0.4673676525872368 0  0.9308375558444295 1.286291202675726 0  2.609275627299536 0.5207885309723005 0  2.859418780372727 0.4404724026784034 0  0.1368795735450182 0.2913992261536034 0  0.5088670694303536 0.6431238265444117 0  0.9924988599062848 0.7887715626383616 0  0.8674753477047706 0.6821390867986818 0  0.6993572585883594 0.9038049302516018 0  1.53924450853783 0.6818717864694561 0  1.27954362181495 0.818196911265721 0  2.885754890315292 0.65625 0  0.1199579452929171 0.84375 0  0.3101130847613819 0.7251157056441525 0  2.683488575489726 1.10528265125029 0  2.637912450120847 1.350340704724588 0  0.65625 1.387568746661148 0  2.204969505432462 0.7645924845263576 0  2.34230217156612 0.6870332922078795 0  2.458336421316689 0.930056573232228 0  1.547170662421109 0.4687109428674099 0  0.55426355401875 0.2785752421136156 0  1.927690911684502 0.7425770788416013 0  2.650983472818039 0.6639703826486528 0  0.2807744135836687 0.2731407085328489 0  2.697063502273202 0.4130460425434029 0  1.768721210125562 0.4985606178023466 0  1.59375 1.394491048145999 0  1.03125 1.39617417476255 0  2.649124789533757 0.9376608889715211 0  2.899345577629528 0.84375 0  2.448792339301353 1.151333513094988 0  2.455516477512143 0.7671738041202795 0  0.1479512725554237 1.367277900867101 0  1.733007556765436 0.6856365299097277 0  2.865 0 0  0.407900401917371 0.1920322062602331 0  1.482893533441057 0.9020086108979886 0  2.902194538181383 1.21875 0  2.860324471164851 1.360324471164851 0  0.9128790560808855 0.5311054613533476 0  0.7396036279203969 1.183264973390871 0  1.379392725427689 0.4456149894503371 0  0.8305263666170877 0.339868595109382 0  2.352639297837627 1.399880277695907 0  2.15625 1.5 0  2.32277762299786 1.203473773731512 0  1.818471673600783 0.235727380341035 0  1.269129800285538 0.3222823294390822 0  2.329228807632851 0.5297324129610972 0  0.430777275012463 0.469645907614299 0  1.390502090335328 0.1630587681988043 0  1.149408636841162 1.157447166816889 0  1.687853147042319 0.2519031106491252 0  0.3941048876243997 0.8956837842542459 0  1.877835046604575 0.410724628626283 0  1.348230251479045 0.6691802479050837 0  2.336954765206726 0.2613063289913201 0  2.514033953321691 1.393470229958569 0  0 0.46875 0  0.1287800079303892 0.5340043503292357 0  2.441328451749267 0.3721441168812449 0  0.9333932382689634 0.2670516659043625 0  1.13959172768211 0.5827503401695603 0  0.8703665929291606 1.395134656069543 0  1.240468926246127 0.9364063612525604 0  1.433475419570003 1.229904687600933 0  1.020534477629395 0.9101139083191684 0  1.108777781305164 0.7462713331880694 0  0.6468125623079457 0.6038935958199032 0  1.665312060212151 0.428962863572448 0  0.2512528931669099 0.5500044694745148 0  2.66971919386773 0.2450375495263612 0  2.901855502368762 0.2640467328343441 0  2.063534245742155 0.9373123558679215 0  2.031795413587333 0.1972457754676831 0  1.836924180675512 1.065887991891963 0  1.001601941364679 1.16852535211421 0  0.8051266927803291 0.9581030042697194 0  0.7620228346493961 0.7461373576581022 0  3 1.03125 0  2.084817260746984 1.176705869274554 0  2.085981885570153 0.5347538843754811 0  1.496744890324478 0.239335226969819 0  1.894594308711337 0.8570406362709689 0  1.78125 1.5 0  2.109375 1.394928085212741 0  2.71875 1.5 0  0.4943575340553394 1.217544978302146 0  0.5937185858435849 1.055241883498284 0  2.227680725187669 0.3075299344665331 0  0.5158109084499103 0.3891628929402524 0  1.96875 1.5 0  0.6036564600183
[...]
<PointData  Scalars="f_66"> 
<DataArray  type="Float64"  Name="f_66"  format="ascii">1.0941397447802713e+01  -3.1346531419267198e+01  -3.0617948463263115e+01  -2.9700916259343597e+01  -2.7560827792674655e+01  -2.5636045824854016e+01  -2.3953813984664738e+01  -2.3858990095024883e+01  -2.5025315540260120e+01  -2.6053365585488155e+01  -2.6620337507562628e+01  -2.6923653820593881e+01  -2.8105783642968529e+01  -2.5223239888035607e+01  -2.5227060901368340e+01  -2.4710940455604202e+01  -2.4520220221572885e+01  -2.5015221764728235e+01  -2.5041473406144057e+01  -2.4427878376001676e+01  -2.3947956518132091e+01  -2.4155194918557953e+01  -2.4360726530179843e+01  -2.5321407911378852e+01  -2.4429454721211812e+01  -2.4247486088961260e+01  -2.3661486447236658e+01  -2.2491136418269704e+01  -2.0994185859957074e+01  -2.0394230858712980e+01  -2.1467193667457654e+01  -2.3091743737054571e+01  -2.4960545479559197e+01  -2.6918829627574159e+01  -2.4199242941791418e+01  -2.3390094659408916e+01  -2.2686587888337183e+01  -2.2035560807191136e+01  -2.0894352893629936e+01  -1.9446904427806814e+01  -1.8377832631736140e+01  -1.8963305588019981e+01  -2.0733083106599491e+01  -2.2753316096854078e+01  -2.4600093918258946e+01  -2.4507588436887474e+01  -2.2640769639888486e+01  -2.1167766010712075e+01  -1.9512182493721340e+01  -1.7886225611922807e+01  -1.7171838737944231e+01  -1.8086048182253567e+01  -1.9980256840527510e+01  -2.1602681867562239e+01  -2.1467406582932746e+01  -2.0592002384473606e+01  -1.8477116923472057e+01  -1.6306056802785257e+01  -1.4562714368872770e+01  -1.4070607316121265e+01  -1.4699933018645439e+01  -1.5377134078086645e+01  -1.5666220551123958e+01  -1.6428581359182807e+01  -1.7906604971008310e+01  -1.7747076192511180e+01  -1.6873119388689570e+01  -1.4908837862275746e+01  -1.2597794889968565e+01  -1.0842688921163337e+01  -1.0268409631858631e+01  -1.0140104855525987e+01  -9.6689882037591772e+00  -8.9108719148163917e+00  -9.7847788136078488e+00  0.0000000000000000e+00  0.0000000000000000e+00  -1.0056239315782078e+01  0.0000000000000000e+00  1.4425544729099581e+01  -1.9750712157792663e+01  -2.4362075216961504e+01  -2.7268862762627016e+01  9.8505895677983126e+00  1.1778125395703796e+01  -3.5303532224694263e+00  -1.9707363122202783e+00  -3.3039517852599096e+00  2.5797762597497766e+00  -4.4562821222436941e+00  1.4775897666763038e+00  -1.2610780813999733e+01  -8.7783607051378070e+00  1.3547383734981709e+01  -1.2961403598426033e+01  1.0364200695358594e+01  -4.1129355654713269e-02  0.0000000000000000e+00  1.2193399507923644e+01  0.0000000000000000e+00  1.0565142466219610e+01  -1.2552303774590309e+01  2.5884328942160066e+00  -9.7592926332925973e+00  5.0507939263201402e+00  5.3053358154749732e+00  5.7841409710754403e+00  -5.0250824905171951e+00  -6.1240837845910310e+00  2.1275512486303145e+00  -4.7718187265006184e+00  -2.3389536813296692e+00  3.7004310501563400e+00  7.5588419612571673e+00  6.0659585256843185e-01  -6.5507786764857545e-01  4.0346444998874800e+00  -1.9300362277343577e+01  1.2378693707420949e+01  7.1603887359066460e+00  -2.8322931554876631e+00  -7.9444647202792218e-01  -5.5952264335562765e+00  -9.8237388558352237e+00  1.4519217523564999e+01  -6.9116306678886392e+00  -9.1863066632068673e+00  -1.5914794855670076e+01  -1.3543134134326943e+01  -1.6397050575980913e+01  8.9864273674144215e+00  -1.8315544700209355e+01  -8.3558790173113824e+00  3.8850064927114641e-01  6.1863639313546432e+00  -4.4003249728469740e+00  -1.4984878855059488e+01  -1.7465280167253500e+01  -1.2872700612598663e+01  4.8907037653463297e+00  -1.4567551753696083e+01  -9.7785672426247778e+00  -7.0343579138781083e+00  1.2645733244394409e+01  1.1385752227865102e+00  1.0501184670263688e+00  -1.1877316945896929e+01  -1.7015893153537366e+01  -7.8140251109093724e+00  -7.8282006992420419e+00  8.4744388274858231e+00  6.4656964535668244e+00  -1.1295567848620969e-01  -7.9627821229421303e-01  0.0000000000000000e+00  1.3281430990786932e+01  1.1756249888229778e+01  0.0000000000000000e+00  1.1648066934673007e+01  -5.0638426412441051e+00  0.0000000000000000e+00  6.5145632917066045e+00  0.0000000000000000e+00  8.7784232760777190e+00  -1.6366362746807297e+00  -1.5159998930343869e+01  6.1108965104774553e+00  -2.3743126294562359e+01  2.9663151340008600e+00  -2.9011593849458275e+00  1.1546731591132737e+00  2.7290286505060251e+00  8.7458852275349592e+00  -5.7855365057462809e+00  -1.9841639531030605e+01  -1.3906521009421766e+01  9.1254726550552974e+00  6.3890093917184467e+00  -9.0896421778755432e+00  3.2363091493781613e+00  9.0037288026821720e+00  1.5210589502750922e+00  5.0424183035122558e+00  4.5596156577914987e-01  -4.6155776072290395e+00  9.5699793206998880e+00  5.0869172585939069e+00  -2.1452879227815740e+00  7.2238526907965173e-01  -1.2418876615449694e+00  -1.0484101268749285e+01  1.6461162695465097e+00  3.5762268663009227e+00  -2.1067523942574415e+01  -1.3532501045848075e+01  6.3201145937860668e+00  -4.2023038044247789e+00  -2.1006545124606952e+00  -2.1187878133932799e+01  -1.1139673295911038e+01  -5.9089384882906026e+00  -8.9762416479171190e+00  -3.9303208927721114e+00  -6.7225715299156654e+00  -4.2813565291774394e+00  -7.6956599566927653e-01  -7.1885856712918601e+00  -9.6691310627882423e+00  2.7889582964214292e+00  7.0802230323646134e+00  8.1797353919728959e+00  -2.5290165608789690e+00  -3.4214374160233167e+00  8.9439287352118491e-01  -1.1812685368412494e+01  -2.0408105781366014e+01  -3.9398505027679569e+00  -2.1641048168021575e+00  -2.1267359335858959e+01  -4.5632445628177951e+00  -1.0119157607159700e+01  1.0500161596112561e+01  9.1784969201351032e+00  9.0705915133234483e-01  1.5242013531648261e-02  4.6742526994589335e+00  -1.6581981193583408e+00  6.3877767411352755e+00  -5.9315616304301200e+00  -5.2925051008453821e+00  -2.2918932582957833e+01  -1.6384169460941003e+00  1.6851825613558948e+00  3.6271490030041229e+00  -1.2596126299316465e+01  3.2129441356015356e+00  -1.3053463316826473e+01  -1.7711249657288874e+01  1.0382530006879437e+01  1.3940681344145174e+01  6.0929770677931385e+00  -1.6152051784733292e+01  -1.6518299523470091e+01  -6.3216200079300480e+00  -1.5823727775251852e+01  -2.0145146887757441e+01  3.6825027502463330e+00  -1.6337210257368231e+01  -5.0329155333249629e+00  -1.1609402800482448e+01  -7.6922913706995129e+00  -1.1584792908059725e+01  9.0444222830325778e+00  -1.7381114012208648e+01  -1.5195639350760052e+01  -8.2852620246496489e+00  -1.9088532923274638e+01  -1.0523611729201589e+01  9.0045993792576056e+00  -1.5067221214570943e+00  6.1780523633788285e+00  -2.8086307084115067e+00  -6.5921774399334589e+00  -1.1688205509918046e+01  -1.2240475600684114e+01  -1.4355230839157429e+01  -7.2521478273570699e+00  -2.3497122047389718e+00  6.2093429104394116e-01  -1.5588677755402188e+01  3.0753863681724609e+00  3.5605705185950303e+00  -2.2542182543240341e+00  -7.7125358950550575e+00  0.0000000000000000e+00  5.8109675851800011e+00  -7.7117523454409254e+00  -1.7764558950817207e+01  -1.5165577228880740e+00  1.4777161209938296e+01  1.0992668903853266e+01  1.0618259676570814e+01  3.4293207865194444e+00  -4.0970688653563653e-01  -1.1545224900060440e+01  -1.7627993132684363e+01  1.2351660028603387e+01  -5.7427569064002419e+00  -1.5185327113913909e+01  -2.1301483410032748e+01  -5.9816804331439686e+00  -8.7507025630878417e+00  -2.7947264350508629e-02  5.7270961284238355e+00  5.6355113109817134e-01  3.6185745528410047e+00  2.7076255449562954e+00  -2.6196691498530011e+00  -1.7505651759225760e+01  0.0000000000000000e+00  -1.8136598455012994e+01  -1.4839251052571049e+01  -2.5246746242421150e+00  -2.5068497402307215e+00  -1.4087259535168560e+01  7.3377576240454472e+00  -1.1858395870800629e+00  -2.5546835098995402e+00  -4.1783473142847782e+00  9.9483971093034651e-01  6.1580549256840573e+00  -4.3923262897955464e+00  1.0661113326760780e+01  -3.7917886554454289e-01  -1.8759814378981812e+01  -1.1919195220795570e+01  -1.5089361112520669e+01  -9.8677107598774096e+00  -9.3054071781934518e+00  -1.0025459506709257e+01  -1.5294441554262745e+00  -9.0586881160292538e+00  -8.6761395012433269e+00  8.0202619315360959e+00  6.6258663042494961e+00  -1.0376832021419244e+01  2.6549515314422405e+00  -1.2520600407601501e+01  1.4830333792296801e+00  -1.9649597279074925e+01  9.2933594457687843e+00  0.0000000000000000e+00  -4.7641572690685372e+00  4.7983434910837692e+00  5.0175270121755551e+00  3.1787654241875829e-01  2.4039313592343148e+00  1.0118477438594358e+00  -3.5283884887572596e+00  1.2107628964908301e+00  1.1035129925474685e+01  -5.2044844423640946e+00  1.4571286249856011e-01  9.2347509728164301e+00  7.4184424096857828e+00  -1.4904565768185687e+01  -1.6439158433538132e+01  0.0000000000000000e+00  4.3438514744856382e+00  -2.2874331011052757e+01  -5.6340979595650644e+00  -8.5994708677560094e+00  -1.0272189032624606e+01  -6.7989312093071108e+00  -3.6703881387510391e+00  7.8038064076918046e+00  1.0759101200542819e+01  8.4508832878060751e+00  -7.3104983880165904e+00  5.7242655506055238e+00  8.7421285974022709e+00  4.4919219602284288e+00  6.9809171648737198e+00  9.2747925262909359e+00  2.9957549646762085e+00  -6.9884090340198979e+00  4.2150467145031978e-01  -5.2504254597517952e-01  1.0630863480875570e+00  9.7268631325874502e+00  -8.0955786242455385e+00  7.6629031481634868e+00  4.0110939339634450e+00  -6.1011370685648136e-01  -1.3564845746794207e+01  -1.7648712765344666e+01  -7.3067517519845762e+00  1.7504951711806309e+00  -1.2315844365719983e+01  2.4609428786580683e+00  3.3152777087631136e+00  -1.6648751690051209e+00  -1.0543946341071884e+00  -3.1565756704120096e-01  9.9508361037776289e+00  7.6289200870544471e+00  1.3328912846443394e+01  0.0000000000000000e+00  0.0000000000000000e+00  1.0719004318629970e+01  1.1519324376684956e+01  -7.5774260586529483e+00  0.0000000000000000e+00  -2.2083467115436367e+01  0.0000000000000000e+00  1.3749101682108972e+01  1.1406280848464537e+01  1.2326605054615101e+01  1.2701549031738827e+01  1.0266401645989506e+01  1.2006659445196240e+01  -1.8147839782730514e+01  5.5376428871897625e+00  -7.4724641723530738e-01  -5.6244199805759960e+00  -7.2662847589895403e+00  -1.7979528455967738e+01  -1.7274122991368067e+01  -1.1957841937357063e+01  -2.2705578283436649e+00  -6.8687041737925514e-01  -3.6688952711918006e+00  -2.2039186292468280e+01  -2.3123552381388802e+01  -3.1841434889137759e+00  2.0538987071843025e+00  4.4484174380196029e+00  3.5137324761153739e+00  -5.3794553939726377e+00  -2.5646778875222402e+00  1.0666223468067647e+01  7.9581221620798450e+00  7.9528176717785337e-01  -5.9269800323586619e+00  -1.3474579014819167e+01  -1.6083410219972514e+01  -1.1381871267035670e+01  -7.6016142438685614e+00  -1.4299239935021118e+01  -3.8609162284289500e+00  -1.3100215161345588e+01  7.8616782590401373e+00  -6.2635236998698414e+00  -1.5191192409617742e+01  -1.3910337043337034e+01  -1.8016371504583674e+01  -4.0004072404598343e-02  -1.6295722257072452e+01  -1.3360500152483457e-01  4.2880828557540385e+00  -3.7262829692569497e+00  -9.5827363298772206e-01  1.1161769700572142e+01  -1.9771230960663413e+01  1.1456300808181249e+01  -9.5991962441511518e+00  -2.2821695003395732e+01  8.1208000784399417e+00  -1.9925553727815877e+00  -1.2646925540013433e+01  1.3900447348860703e+00  -2.2637611674647058e+01  -5.5795719257365581e+00  4.1717175021029407e+00  8.5502272537579653e+00  1.6480022393757736e+00  1.8677491797407408e-01  4.0154867639292204e+00  5.2696409854663884e+00  -4.1017398870847286e+00  -1.2028141168354772e+01  -2.4448594517643154e+00  2.7749352983046811e+00  1.1118544507658052e+00  5.1587380586071836e+00  7.5104062574949397e+00  -2.0714962453028981e+01  -8.4907478803562366e+00  7.3628810392641264e-01  4.8660575110829072e+00  6.8353643399993862e+00  -1.4266257925748979e+01  -1.0945076898437513e+01  -8.8431273493472577e+00  -2.4901681379869441e+01  5.7201517873934442e+00  -1.0323709452125302e+01  -8.1593626007046289e+00  -1.1231089904012215e+01  -3.0548703353775246e+00  -3.4967558484623877e+00  -3.7400862873942322e+00  2.1158642581456308e+00  -4.9142178271609236e+00  -6.6352804407102886e+00  1.6557062312666162e+00  -4.4153390600815063e+00  -6.3791376551339356e+00  -7.0576854435870162e-01  4.4788068732410187e+00  -3.5302300534941650e-01  3.8719664748136609e+00  7.6086699103867810e+00  -2.2725675079198155e+01  -6.8429455449866969e+00  2.2743988181993862e+00  6.9634289227174211e+00  -1.3709835586481288e+01  9.0089675431066318e+00  8.8440958852318854e+00  9.4204536259597731e+00  -4.7442305938618308e+00  9.7785269898298708e+00  -1.7970509874858084e+01  -2.0605157338871045e+01  -1.0166652129140243e+01  -5.5001453292270428e+00  -2.2229621217990434e+01  -4.1843229494254848e+00  7.4735850987497088e-01  -2.7029587260016150e+00  9.2721656088989839e+00  2.7116587921622384e+00  3.4326113294463592e+00  6.4834620544068917e+00  4.0298025137667244e+00  -1.9389637520256482e+00  -1.9728414471455455e+00  -5.0165147578703442e+00  -3.7606559677628382e+00  -4.7717342392313116e+00  -2.2177753721913565e+00  -2.3100451400690243e+01  1.9015978720907256e+00  -2.2471062574518676e+01  -1.0846785598451689e+00  -8.5893754797993953e+00  6.9860081697499234e+00  -1.5191636187953673e+01  -1.3236663058329471e+01  -1.4711567962304407e+01  5.4757894073570972e+00  2.5735489686430468e+00  1.9866928835819646e+00  -6.0499766480617510e+00  5.6417623565852288e+00  -4.5092001055062418e+00  -2.1093920142224032e+01  -2.3261548336054375e+01  -2.1243527225478459e+01  -2.6248706755673027e+01  -1.9503682071860144e+01  -1.2571208029627032e+00  6.8583771654462611e+00  -1.2049776615545150e+01  -1.0655309883703830e+00  -1.2226996392790479e+01  -1.9798290500814083e+01  -6.8880069283385286e+00  -1.4678354272995484e+00  -1.9793874168621695e+00  1.3742962896281070e+00  -5.8565493621475389e+00  2.0125480886796958e+00  6.3556987807894458e+00  1.1378070148022243e+01  -2.2131787265471260e+01  5.5750809303977871e+00  6.9083039434021289e+00  4.4655396400985499e+00  -6.1363773573913853e+00  -1.0044423168156881e+01  -1.5727740564162087e+01  -8.6084705454992232e+00  -3.0885001802475647e+00  -5.0675081222669336e+00  -2.0065703603456058e+00  -2.4576680751616551e+00  -1.2634188733236867e+01  -1.2012044443481392e+01  -1.6101192990601625e+01  -4.3542362467416345e+00  -3.7593854360835528e+00  3.1604649808978098e+00  -1.0743499297499097e+01  -1.3876386935444955e+01  2.0173841269383979e+00  -8.2520321264987171e+00  -2.1180141144147559e+01  1.4754158550425278e+00  7.7770091267682737e-02  6.7824210976908772e-01  7.3913598701792242e+00  -9.5207889034586852e+00  -1.0568992256750805e+01  3.6250346772325619e+00  -7.5721958443301265e+00  -4.8838980851290854e+00  -1.6618849906867423e+00  8.5571106189964610e+00  -1.1257529204377279e+00  -6.9863485911309606e+00  -1.3656558747333756e+01  -1.9770222161421728e+01  4.2404751286587565e+00  -1.2692078804462958e+00  1.0747628423336932e+01  -5.5589324863165601e-01  -9.5996898356983917e-01  4.5819021923156145e+00  1.9307887493235014e+00  2.5462517261485207e+00  -8.1619603897482556e+00  1.0067584833281944e+00  -2.2806167406162498e+01  9.8649801232310939e+00  9.3359896450075723e+00  7.3366593777658640e+00  -3.5198992988845962e-01  -1.8222416106101978e+01  -1.0356211451065342e+01  -1.3695998807690232e+01  -1.0533238191934080e+01  -1.9275433262079869e+01  -7.9716462882795653e+00  -1.1077381256075741e+01  -1.0711645220321116e-01  4.9283777675516944e+00  6.1024020679382787e+00  -7.7819050950372040e+00  -8.7615596591258917e+00  -1.1926754929606480e+01  -1.5943996233506356e+01  -1.0390072541496705e+01  -1.4456124904011595e+01  -1.7830329106889938e+01  7.7639688703241143e+00  -9.6332703360234220e+00  -2.2262009558353832e+01  -7.7824250276880020e+00  -1.1357101027852726e+01  -1.4910115685454830e+01  -2.0580727284925460e+00  -1.3030843936874057e+01  -1.5008808638615470e+01  1.2057792904650732e+01  -1.8845237672348730e+01  -1.6054543615770818e+01  -1.7641786306308013e+01  8.8563768628768074e+00  2.2525738271510973e-01  1.1530946627748829e+01  -8.9955262741891548e+00  1.0916916843746018e+01  -2.6678356885207202e+00  -7.5232762178207446e+00  -3.5588129997383384e+00  -1.6076765373506767e+01  -8.7501991100748189e+00  -4.2986523444189411e+00  -5.4278693845746924e+00  -5.6878155915737123e+00  -1.1293906247767240e+00  1.0386784313086649e+01  -1.1024920927128488e+01  7.0144610473907445e+00  -5.8670656049839947e+00  -4.0359113337064150e+00  7.3505957553469576e+00  -1.1354711372963454e+01  5.1831257332004750e+00  7.5120600987614159e+00  3.9235122561748428e+00  2.3134271367225476e-01  3.3605748126009551e+00  -6.6999887945655177e+00  -1.2042155678629827e+01  1.5466654387269589e+00  -6.0125993916712570e+00  -1.9738436978457596e+01  -2.3857034349747170e+01  5.5269336081501539e+00  -2.4652684597546973e+01  -1.1017435190785966e+01  -2.1556820624484545e+00  -2.9800955477261726e-01  -3.1602647632026950e+00  -9.1235081197760124e+00  -1.3354838970362511e+01  -2.4580694508686069e+01  -1.8420826994146697e+01  -1.5190239810444059e+01  -1.4176417852598979e+01  -1.7548165850416432e+01  -7.6538559607145409e+00  -7.3211261522920834e-01  -3.0764664767697227e+00  -4.6013475023240611e+00  4.7152179046899878e+00  -1.9925138665921597e+01  -1.3371380820010572e+01  -3.6804673598304749e+00  3.3751653347164039e+00  -1.8104320294893647e+01  -2.6318708146366564e+01  -8.1620523573701274e+00  -6.2843289079829917e-02  -1.6939896517008037e+01  -2.7015699007563421e+00  -1.1549891690960745e+01  -6.9944465052172253e+00  -8.9518341764099962e-01  -1.4269695984088477e+01  5.7659586965389256e+00  -1.3658099648007257e+01  -7.3949338355723864e+00  -4.5569053942539811e-01  -4.8662098191872847e+00  8.0532199511638893e+00  1.2313152957424169e+01  1.1531739326102118e+01  6.4276192415764211e+00  -9.8905444120266743e+00  -3.1096895528506047e-01  8.7429174228243838e+00  3.4107737639390323e+00  4.9518201806495066e+00  -9.4759837537230478e+00  -1.6763550906389462e+01  -1.3517373003341540e+01  -1.6263156144455419e+01  -5.2366822466585994e+00  1.0350455207103593e+01  9.4781990763499611e+00  1.3982184565026976e+01  6.8940914109234652e-01  7.8946492740955660e+00  1.0663231568932821e+01  -1.3045303960691051e+01  3.8673012104704813e-01  -1.7475298196943125e+01  9.2847666877182444e+00  -3.0380885798698767e+00  -2.1125927850556600e+01  -1.9676986305152838e+01  5.4233969801254149e+00  -8.2047520970661232e+00  -5.4192680681014582e-01  -8.7264124980349400e-01  1.2220496096956222e+01  8.4197654948905516e+00  -1.6402097825467415e+01  -1.3074560752630642e+01  -1.0498287078345403e+01  -1.3877354841365899e+00  -4.5536227582933710e+00  2.6334918923559725e+00  -1.7637568492163130e+01  -1.5828290350279397e+01  2.9556378080401013e+00  2.5109471685905724e+00  -2.0133934271700078e+01  -1.5660752300518778e+01  5.3463187258651548e+00  -6.5977132045949203e+00  -3.3837791381888942e+00  1.1548648694472656e+00  -2.7629364500138380e+00  -1.9447952608474712e+00  -1.0281473131595183e+01  -1.6868943175984267e+01  -2.1307294424955302e+01  2.7518174433200966e+00  7.6646308510864403e+00  -5.7735566137111363e+00  -1.8439718550604505e+00  8.7501374533884047e+00  -2.4244089693284437e+01  -1.0727636246532754e+01  5.9950472933136281e+00  0.0000000000000000e+00  1.7964334807442985e+00  -4.2833980119963329e+00  -1.2128665726484225e+01  -7.5043441122530226e+00  -8.5538534946571296e+00  2.7742286569843810e+00  -1.2264145411824536e+01  -7.2503095839357696e+00  -1.8533966590585440e+01  -2.2905521095314678e+00  -4.3767496455992800e+00  1.0899738978652723e+01  -8.7580997975240493e-02  -3.4861478692408334e+00  -3.5268894391300187e+00  -1.0243344750003276e+01  3.7542164895734675e+00  2.6803899363299393e+00  8.1904190396511947e+00  -1.6415259232414542e+01  1.4605280109626846e+00  -1.4980822267147618e+01  -1.6934044450578600e+00  6.3511117197390634e+00  -1.9386107093516589e+01  -7.0717279107055697e+00  -5.0795702780985446e+00  -6.6914666852588782e+00  4.2576138445662097e-02  -1.9308536733122509e+01  -3.7899737530156568e+00  -1.3758131127504321e+01  -6.2619325260473255e+00  -7.7918748540491647e+00  1.2087526494709838e+01  4.7494711814404571e+00  -1.6410543848070681e+01  -7