<?xml version="1.0"?>
<VTKFile type="UnstructuredGrid"  version="0.1"  >
<UnstructuredGrid>
<Piece  NumberOfPoints="4978" NumberOfCells="9630">
<Points>
<DataArray  type="Float64"  NumberOfComponents="3"  format="ascii">0 1.5 0  0 0 0  0.06190941752361886 0 0  0.06190941752361886 0.02304324263930277 0  0.07687367483109155 0.06663263502519032 0  0.1051805799723963 0.1030013474942385 0  0.1437626405485843 0.128208265731708 0  0.1884388916338735 0.1395218290209338 0  0.2343679681997119 0.1357160372315063 0  0.2765727421371398 0.117203306956754 0  0.3104796713154951 0.0859897797765535 0  0.3324144138380889 0.04545792568865569 0  0.34 0 0  0.4722134970410927 0 0  0.4722134970410927 0.02388743731615415 0  0.4894717723551502 0.0684361811740563 0  0.5216574972706967 0.1037422395464312 0  0.5644238112906292 0.1250373336124665 0  0.6119948867302293 0.1294454429183545 0  0.6579459862509499 0.1163712278761581 0  0.6960711592386857 0.08758043367405244 0  0.7212213898225662 0.04696141660432988 0  0.73 0 0  0.85 0 0  0.857341522555727 0.04635254915624212 0  0.8786474508437579 0.08816778784387098 0  0.9118322121561291 0.1213525491562421 0  0.9536474508437579 0.142658477444273 0  1 0.15 0  1.046352549156242 0.142658477444273 0  1.088167787843871 0.1213525491562421 0  1.121352549156242 0.08816778784387097 0  1.142658477444273 0.04635254915624211 0  1.15 0 0  1.461909417523619 0 0  1.461909417523619 0.02304324263930277 0  1.476873674831092 0.06663263502519032 0  1.505180579972396 0.1030013474942385 0  1.543762640548584 0.128208265731708 0  1.588438891633874 0.1395218290209338 0  1.634367968199712 0.1357160372315063 0  1.67657274213714 0.117203306956754 0  1.710479671315495 0.0859897797765535 0  1.732414413838089 0.04545792568865569 0  1.74 0 0  1.78 0 0  1.789134456098646 0.04592201188381079 0  1.815147186257614 0.08485281374238571 0  1.854077988116189 0.1108655439013544 0  1.9 0.12 0  1.945922011883811 0.1108655439013544 0  1.984852813742386 0.08485281374238569 0  2.010865543901355 0.04592201188381077 0  2.02 0 0  2.161909417523619 0 0  2.161909417523619 0.02304324263930277 0  2.176873674831092 0.06663263502519032 0  2.205180579972396 0.1030013474942385 0  2.243762640548584 0.128208265731708 0  2.288438891633873 0.1395218290209338 0  2.334367968199712 0.1357160372315063 0  2.37657274213714 0.117203306956754 0  2.410479671315495 0.0859897797765535 0  2.432414413838089 0.04545792568865569 0  2.44 0 0  2.472213497041093 0 0  2.472213497041093 0.02388743731615415 0  2.48947177235515 0.0684361811740563 0  2.521657497270697 0.1037422395464312 0  2.564423811290629 0.1250373336124665 0  2.611994886730229 0.1294454429183545 0  2.65794598625095 0.1163712278761581 0  2.696071159238686 0.08758043367405244 0  2.721221389822567 0.04696141660432988 0  2.73 0 0  3 0 0  3 1.5 0  0 0.75 0  3 0.75 0  1.5 1.5 0  0 0.375 0  0 0.1875 0  0 0.09375 0  0.75 1.5 0  2.25 1.5 0  1.137279452465634 0.8667483509386543 0  2.055384907633385 0.8149748422668953 0  0.5545701656450307 0.9454298343549693 0  2.545804583542266 1.045804583542266 0  2.462951104370831 0.5854482317237805 0  1.6063536999151 1.018574336065804 0  0.7683179692414909 0.5511078775270282 0  1.647896012796697 0.5780189144999826 0  1.875 1.5 0  0.3683226130580748 0.5893782185394094 0  0.375 1.5 0  0 1.125 0  3 0.375 0  1.125 1.5 0  3 1.125 0  2.625 1.5 0  1.247216233241016 0.4851891764902285 0  0.8779404074027722 1.143194262378568 0  1.992337703792022 0.4642129848858538 0  2.200035536160075 1.144037289792772 0  1.3125 1.206118267007311 0  1.882280687299076 1.18026905614258 0  0.8375010042452264 0.8437030129736524 0  0.2703628106324028 0.8673582108832857 0  0.336944444033578 1.181320038574892 0  1.424720841531434 0.7792108746582741 0  2.763716218670896 0.5625 0  0.6112325230261646 1.216037756380734 0  2.429292395855053 1.293345775631689 0  2.798691155259055 0.9375 0  2.340750225085827 0.8450755885956063 0  2.74506315455788 1.24506315455788 0  0.4115012634770826 0.3359864655288552 0  1.6875 1.5 0  1.553212834656815 1.259295117559057 0  1.783849920010049 0.8130750647527071 0  2.590242300399914 0.800172794523538 0  2.206538789959823 0.6067588023913982 0  1.022769083327432 0.627137676743421 0  2.0625 1.5 0  2.566013274303806 0.3667751817948443 0  2.317230353528816 0.3853650267397287 0  0.9546600707351991 0.3912757388497677 0  1.76490060939521 0.3540000691256479 0  1.398169292756645 0.3089248951275104 0  0.1875 1.5 0  0.6961815191548208 0.3380429757712475 0  0.6390751493076395 0.7361434669345621 0  1.385952842918209 0.9972233609662619 0  1.082019261833385 1.265823315390121 0  2.784258672215756 0.3048233224522298 0  0 0.5625 0  0.2130557952202133 0.4325455696870932 0  2.110276358430479 0.2903936515686117 0  0 1.3125 0  0.5618175915722093 0.5022778936897083 0  1.438605690073396 0.5702366817214194 0  1.851778102902867 0.6169409446553686 0  0.9375 1.5 0  1.918499765346388 0.9737703250858507 0  1.066617221574711 1.060327143126178 0  0.17830064634795 0.65625 0  1.139464543633635 0.3182162642668528 0  1.214887260891528 0.6824917486258804 0  0.4470960700565646 0.7803305254813445 0  2.056073894593081 1.292965518236122 0  0.7800417460951754 1.309431349558015 0  0.7102942521579887 1.054059105222724 0  2.772203778896419 0.7508393899039921 0  3 0.9375 0  2.4375 1.5 0  0.5625 1.5 0  3 0.5625 0  1.3125 1.5 0  0 0.9375 0  3 1.3125 0  2.8125 1.5 0  3 0.1875 0  1.74009613212014 1.312845810865967 0  0.1858279553328271 1.04932632064409 0  1.582414108002925 0.3243096672004901 0  0.4576542986122824 1.328517530191622 0  1.30595470876181 0 0  0.1616828829631953 1.229471150973137 0  1.600689448835705 0.8342777580615786 0  2.184954406689295 0.9543424310663166 0  2.356848459734244 1.033731425282726 0  2.249618867339344 1.318565528322325 0  2.031012140730151 0.6383085966483963 0  1.264473591492607 0.1926369230867345 0  1.93294708275428 0.2969945700235964 0  1.406271966518558 1.353045118606616 0  0.2855042944080262 1.351202341158466 0  2.163692386827529 0.4469681835123645 0  2.058709899218631 1.05982604745508 0  1.21875 1.361760465218127 0  1.232585115983139 1.060656719142284 0  1.682328919476849 1.161572426192166 0  0.4864612871934715 1.100927295036068 0  2.842393003195402 0.1547034389615206 0  1.901710724058898 1.340659870484523 0  2.578488906869203 1.212378831230944 0  0.346730023619794 1.013455011579226 0  1.758789788261688 0.970834021568154 0  0.9209577900333827 0.984909924281538 0  2.461973640748163 0.2490632223012221 0  2.833434714842781 1.102015011431888 0  1.485476187845101 1.118115752354218 0  0.7869575052851041 0.2127716822913992 0  1.091585464669657 0.4673676525872368 0  0.9308375558444295 1.286291202675726 0  2.609275627299536 0.5207885309723005 0  2.859418780372727 0.4404724026784034 0  0.1368795735450182 0.2913992261536034 0  0.5088670694303536 0.6431238265444117 0  0.9924988599062848 0.7887715626383616 0  0.8674753477047706 0.6821390867986818 0  0.6993572585883594 0.9038049302516018 0  1.53924450853783 0.6818717864694561 0  1.27954362181495 0.818196911265721 0  2.885754890315292 0.65625 0  0.1199579452929171 0.84375 0  0.3101130847613819 0.7251157056441525 0  2.683488575489726 1.10528265125029 0  2.637912450120847 1.350340704724588 0  0.65625 1.387568746661148 0  2.204969505432462 0.7645924845263576 0  2.34230217156612 0.6870332922078795 0  2.458336421316689 0.930056573232228 0  1.547170662421109 0.4687109428674099 0  0.55426355401875 0.2785752421136156 0  1.927690911684502 0.7425770788416013 0  2.650983472818039 0.6639703826486528 0  0.2807744135836687 0.2731407085328489 0  2.697063502273202 0.4130460425434029 0  1.768721210125562 0.4985606178023466 0  1.59375 1.394491048145999 0  1.03125 1.39617417476255 0  2.649124789533757 0.9376608889715211 0  2.899345577629528 0.84375 0  2.448792339301353 1.151333513094988 0  2.455516477512143 0.7671738041202795 0  0.1479512725554237 1.367277900867101 0  1.733007556765436 0.6856365299097277 0  2.865 0 0  0.407900401917371 0.1920322062602331 0  1.482893533441057 0.9020086108979886 0  2.902194538181383 1.21875 0  2.860324471164851 1.360324471164851 0  0.9128790560808855 0.5311054613533476 0  0.7396036279203969 1.183264973390871 0  1.379392725427689 0.4456149894503371 0  0.8305263666170877 0.339868595109382 0  2.352639297837627 1.399880277695907 0  2.15625 1.5 0  2.32277762299786 1.203473773731512 0  1.818471673600783 0.235727380341035 0  1.269129800285538 0.3222823294390822 0  2.329228807632851 0.5297324129610972 0  0.430777275012463 0.469645907614299 0  1.390502090335328 0.1630587681988043 0  1.149408636841162 1.157447166816889 0  1.687853147042319 0.2519031106491252 0  0.3941048876243997 0.8956837842542459 0  1.877835046604575 0.410724628626283 0  1.348230251479045 0.6691802479050837 0  2.336954765206726 0.2613063289913201 0  2.514033953321691 1.393470229958569 0  0 0.46875 0  0.1287800079303892 0.5340043503292357 0  2.441328451749267 0.3721441168812449 0  0.9333932382689634 0.2670516659043625 0  1.13959172768211 0.5827503401695603 0  0.8703665929291606 1.395134656069543 0  1.240468926246127 0.9364063612525604 0  1.433475419570003 1.229904687600933 0  1.020534477629395 0.9101139083191684 0  1.108777781305164 0.7462713331880694 0  0.6468125623079457 0.6038935958199032 0  1.665312060212151 0.428962863572448 0  0.2512528931669099 0.5500044694745148 0  2.66971919386773 0.2450375495263612 0  2.901855502368762 0.2640467328343441 0  2.063534245742155 0.9373123558679215 0  2.031795413587333 0.1972457754676831 0  1.836924180675512 1.065887991891963 0  1.001601941364679 1.16852535211421 0  0.8051266927803291 0.9581030042697194 0  0.7620228346493961 0.7461373576581022 0  3 1.03125 0  2.084817260746984 1.176705869274554 0  2.085981885570153 0.5347538843754811 0  1.496744890324478 0.239335226969819 0  1.894594308711337 0.8570406362709689 0  1.78125 1.5 0  2.109375 1.394928085212741 0  2.71875 1.5 0  0.4943575340553394 1.217544978302146 0  0.5937185858435849 1.055241883498284 0  2.227680725187669 0.3075299344665331 0  0.5158109084499103 0.3891628929402524 0  1.96875 1.5 0  0.6036564600183
[...]
<PointData  Scalars="f_66"> 
<DataArray  type="Float64"  Name="f_66"  format="ascii">1.1323989459291930e+01  -3.0667419271746567e+01  -2.9967064500250459e+01  -2.9088141774704141e+01  -2.6998415859365970e+01  -2.5194077540210735e+01  -2.3315326867436234e+01  -2.3241663277382198e+01  -2.4581770130206753e+01  -2.5557061512628010e+01  -2.6236762570018129e+01  -2.6383531770903641e+01  -2.7456223725749243e+01  -2.4555389899912196e+01  -2.4574544448949680e+01  -2.4060718477968162e+01  -2.3961522709564907e+01  -2.4634874503328930e+01  -2.4583508142950109e+01  -2.4020397613040785e+01  -2.3341221407114315e+01  -2.3541062479719290e+01  -2.3705124492554440e+01  -2.4533920751871570e+01  -2.3815232025550412e+01  -2.3866929919841649e+01  -2.3285904414779647e+01  -2.2116510329016535e+01  -2.0529447807007500e+01  -1.9833532878598486e+01  -2.1087160931547782e+01  -2.2644812076519528e+01  -2.4453134700367777e+01  -2.6401159918692525e+01  -2.3534788516366639e+01  -2.2726367861557641e+01  -2.2275027438301670e+01  -2.1702604174159152e+01  -2.0482803200419529e+01  -1.9065589131037292e+01  -1.7814273284530266e+01  -1.8547783626852642e+01  -2.0373055718449390e+01  -2.2275435489437339e+01  -2.4073356225146142e+01  -2.3971262175904560e+01  -2.2129750368318820e+01  -2.0731919645393674e+01  -1.9143302179892196e+01  -1.7489985346731192e+01  -1.6675565649750965e+01  -1.7756370924620409e+01  -1.9618858869443127e+01  -2.1110089651775279e+01  -2.1010097519530632e+01  -2.0161093751862200e+01  -1.8110667367177324e+01  -1.6030245046420212e+01  -1.4226948579812424e+01  -1.3728550748185551e+01  -1.4441263325546982e+01  -1.5094858872852850e+01  -1.5300939932186397e+01  -1.5847186796591028e+01  -1.7321188797720005e+01  -1.7171825636091050e+01  -1.6309149525293172e+01  -1.4528959813402086e+01  -1.2449858162981990e+01  -1.0702461299235397e+01  -1.0260120203465688e+01  -1.0236154190897018e+01  -1.0001391609710792e+01  -8.7255012240970053e+00  -9.1629285987522469e+00  0.0000000000000000e+00  0.0000000000000000e+00  -9.8123120933550130e+00  0.0000000000000000e+00  1.5084333242592139e+01  -1.9450856074072167e+01  -2.3943968008330920e+01  -2.6677885962616411e+01  1.0328323193706145e+01  1.2311116342502793e+01  -3.2910307867662043e+00  -1.7233722303908685e+00  -3.0733031756816516e+00  2.8568648705584425e+00  -4.3191606861831300e+00  1.7331981288067269e+00  -1.2361151257559914e+01  -8.5429971769983499e+00  1.4030791510641679e+01  -1.2697618181629158e+01  1.0772990094241235e+01  1.6378079813510360e-01  0.0000000000000000e+00  1.2640198441074046e+01  0.0000000000000000e+00  1.1122891619324040e+01  -1.2296976607393340e+01  2.8234220185852221e+00  -9.5425849026051068e+00  5.3335908445055695e+00  5.5613956247883287e+00  6.0571578032957669e+00  -4.7878270023458338e+00  -5.8886780729460346e+00  2.3492434851937398e+00  -4.5295774171128986e+00  -2.3218638666865794e+00  3.9321588817720352e+00  7.8912052451845609e+00  7.3441077036837765e-01  -3.9732797690783223e-01  4.2934727580365193e+00  -1.9016402798437905e+01  1.2847293274518931e+01  7.4274042624598069e+00  -2.5895477058972767e+00  -5.6044870363716670e-01  -5.3983080990197294e+00  -9.5769237556366580e+00  1.5141471121403184e+01  -6.7947883752398903e+00  -9.0156792433886963e+00  -1.5669198337175597e+01  -1.3324556149391338e+01  -1.6137470102891800e+01  9.3549982919900021e+00  -1.8061561350050347e+01  -8.1078698473431814e+00  6.3371347742103556e-01  6.4286860725279533e+00  -4.5174646726867609e+00  -1.4716070746178836e+01  -1.7196670227014256e+01  -1.2685465556623111e+01  5.0973130486867406e+00  -1.4318473361294453e+01  -9.5363306644654156e+00  -6.8110371742630260e+00  1.3176614018110230e+01  1.3952238232201282e+00  1.2910742340772314e+00  -1.1625559346909453e+01  -1.6775235209873895e+01  -7.5665970194040622e+00  -7.5843065318664449e+00  8.7699251367641100e+00  6.7031716179455403e+00  1.2787703568628861e-01  -7.2252311223471710e-01  0.0000000000000000e+00  1.4014106496089285e+01  1.2297901284217179e+01  0.0000000000000000e+00  1.2097000075063962e+01  -4.8312963687086130e+00  0.0000000000000000e+00  6.9672332920562550e+00  0.0000000000000000e+00  9.0487618335798441e+00  -1.4198955291428190e+00  -1.4930972452824998e+01  6.3432846490896893e+00  -2.3145834229714353e+01  3.1672772508788434e+00  -2.6537993614008131e+00  1.4033654704009952e+00  3.0156426301127772e+00  9.0730017325860199e+00  -5.5536387973613675e+00  -1.9550016760875899e+01  -1.3695621648153413e+01  9.3884895801330419e+00  6.6206553695671220e+00  -8.9126664543634302e+00  3.5076648438976283e+00  9.2988630419290335e+00  1.7714861037595160e+00  5.3007281809583136e+00  6.7758824946515506e-01  -4.7795579691475041e+00  9.8688592763436098e+00  5.4275664219620419e+00  -1.9123088136585507e+00  9.7419225026197265e-01  -9.9793903429839481e-01  -1.0393003290390778e+01  1.8476530023043030e+00  3.8266169743417349e+00  -2.0765957972978462e+01  -1.3291796330590456e+01  6.5713136697615120e+00  -4.0374534829423645e+00  -2.1021698583552286e+00  -2.0869324603723395e+01  -1.0894592594314146e+01  -5.6600962390778209e+00  -8.7325432962805323e+00  -3.6856103797947983e+00  -6.4813030270944951e+00  -4.0307350127728281e+00  -6.8131753799438866e-01  -6.9498391906126313e+00  -9.4192372137750304e+00  3.0699489379228710e+00  7.4712470334921539e+00  8.4519431706253130e+00  -2.3081454056964805e+00  -3.1936054668503275e+00  1.1157760210525987e+00  -1.1578178128943613e+01  -2.0145416300634903e+01  -3.7036591547408628e+00  -1.9813768067374451e+00  -2.0966406200445864e+01  -4.5226701420747499e+00  -9.8940361430479289e+00  1.0807618215728731e+01  9.4908008087214668e+00  1.1692519267161572e+00  1.6190529695066619e-01  4.9559289350178473e+00  -1.4758528409315206e+00  6.6098903183994064e+00  -5.6930230557409081e+00  -5.4140656339684954e+00  -2.2587734172885664e+01  -1.3929362408376400e+00  1.9963889226554252e+00  3.9743576746592342e+00  -1.2347839446797298e+01  3.4487867037806694e+00  -1.2802366634276702e+01  -1.7449995167091746e+01  1.0782932775316512e+01  1.4513956851785530e+01  6.4074496184328762e+00  -1.5913149284713253e+01  -1.6247053615201402e+01  -6.1218973899424451e+00  -1.5556677929965909e+01  -1.9834366605549487e+01  3.9208837872865310e+00  -1.6092910017726599e+01  -4.7915850419593706e+00  -1.1402131625379550e+01  -7.4450948758393816e+00  -1.1436953905727549e+01  9.4319875785774165e+00  -1.7106166079828593e+01  -1.4927241017427498e+01  -8.1817758299969778e+00  -1.8822581863922210e+01  -1.0281789174552520e+01  9.3135470234171489e+00  -1.2565831861965813e+00  6.4250544142072572e+00  -2.5617241307420313e+00  -6.3515597637754935e+00  -1.1437037201704142e+01  -1.2012487091939350e+01  -1.4096389358710196e+01  -7.2457308237573814e+00  -2.4326537807515654e+00  8.7993007422257408e-01  -1.5371038378680918e+01  3.3354799244727933e+00  3.8091724408815719e+00  -2.0206845319375515e+00  -7.4689469505449422e+00  0.0000000000000000e+00  6.0933318200781308e+00  -7.5035734213523284e+00  -1.7491196233155829e+01  -1.2726168001680729e+00  1.5445458356446794e+01  1.1388974961315757e+01  1.1457766897432228e+01  3.6458059204275179e+00  -1.7815791140132811e-01  -1.1379179802475193e+01  -1.7373860184330258e+01  1.2871666490684531e+01  -5.5018072048262976e+00  -1.4932492160423486e+01  -2.1030635037517616e+01  -5.8692522517937595e+00  -8.5101018018962140e+00  1.2052002423093586e-01  6.0752690334871318e+00  7.5643486818830397e-01  3.8873187204852533e+00  2.9587499113938036e+00  -2.4447819409200213e+00  -1.7226906623219666e+01  0.0000000000000000e+00  -1.7849836029668378e+01  -1.4586388745712856e+01  -2.2793227460160659e+00  -2.2759520495844558e+00  -1.3842291201928983e+01  7.6344447090916869e+00  -1.1291545887035292e+00  -2.3330738674819198e+00  -3.9497457399796860e+00  1.2439900735596763e+00  6.4112306271136754e+00  -4.1793809856536175e+00  1.0986093170961841e+01  -1.4007463038849294e-01  -1.8473297342638642e+01  -1.1712861114020161e+01  -1.4861854386935796e+01  -9.6156323255729905e+00  -9.0675122326143232e+00  -9.7768909932149235e+00  -1.2812614307684576e+00  -8.8441985914416570e+00  -8.5882107723030856e+00  8.2813508985171662e+00  6.9063859473797580e+00  -1.0122426379139922e+01  2.9095834489899306e+00  -1.2259529855369772e+01  1.6809945983420262e+00  -1.9374351085275883e+01  9.7536949181699182e+00  0.0000000000000000e+00  -4.5310800644858720e+00  5.0604122437657972e+00  5.2797676780947249e+00  5.3058907102380004e-01  2.6102392624803152e+00  1.2194123486669715e+00  -3.3027961345285886e+00  1.4584142693405968e+00  1.1401399995800253e+01  -4.9621183069622488e+00  3.7777234097318785e-01  9.5811383588938668e+00  7.6694708472771502e+00  -1.4651847289513148e+01  -1.6194691189697433e+01  0.0000000000000000e+00  4.6725510394604957e+00  -2.2504338739099929e+01  -5.4003039899801637e+00  -8.3596490043783618e+00  -1.0023784310479014e+01  -6.9451014268827160e+00  -3.4248914912583412e+00  8.0834100988155626e+00  1.1074230719242451e+01  8.7269708451651837e+00  -7.1567625947051337e+00  5.9661459318947490e+00  9.0540479241016261e+00  4.7201526115136021e+00  7.3222456960950186e+00  9.5672806107951178e+00  3.2747858902142895e+00  -6.7467994604149641e+00  6.6330310868454523e-01  -2.7903646562851109e-01  1.3402743243756574e+00  1.0010595766523132e+01  -7.8627659833921912e+00  7.9136129909306838e+00  4.2351097549884358e+00  -3.7257826318126575e-01  -1.3312178746346017e+01  -1.7311388952786885e+01  -7.0602908425040916e+00  1.9897268238013610e+00  -1.2069854329585798e+01  2.7090688098793851e+00  3.5805387082755615e+00  -1.6009866760167286e+00  -8.7356338854145843e-01  -1.9888405415095048e-01  1.0264673241198448e+01  7.8923319267183283e+00  1.3907081999153142e+01  0.0000000000000000e+00  0.0000000000000000e+00  1.1176512489843960e+01  1.1987008914029520e+01  -7.3432985119869416e+00  0.0000000000000000e+00  -2.1760885226271803e+01  0.0000000000000000e+00  1.4362440557611050e+01  1.1945396632397985e+01  1.2778225230501826e+01  1.3155744682983824e+01  1.0842769768409731e+01  1.2510731911582461e+01  -1.7893287356772088e+01  5.7603394619797728e+00  -4.9168502613538867e-01  -5.3792949279845361e+00  -7.0783956198943372e+00  -1.7704093632428364e+01  -1.7012626745837515e+01  -1.1704845044424205e+01  -2.0291015620485089e+00  -4.3553193219668435e-01  -3.4240730819042748e+00  -2.1605864842453432e+01  -2.2678974388528204e+01  -3.0142729140867099e+00  2.3498144258809877e+00  4.6478762118194936e+00  3.7170008033450874e+00  -5.1492285840709853e+00  -2.6057420786648731e+00  1.1072855657976145e+01  8.2872704841792970e+00  1.0228916614823027e+00  -5.6982746791796899e+00  -1.3272263181983792e+01  -1.5836623781238799e+01  -1.1129438553197215e+01  -7.3767848979291823e+00  -1.4072668463413359e+01  -3.6226244007820148e+00  -1.2839249791426024e+01  8.1003201137673546e+00  -6.0162446931747766e+00  -1.4921608457022209e+01  -1.3701575192431468e+01  -1.7738533444703876e+01  2.0896627544541435e-01  -1.6040680123547521e+01  -3.5442418615598908e-02  4.5902907218977180e+00  -3.5613730345028105e+00  -7.3865611489880645e-01  1.1524656079700623e+01  -1.9492035343748910e+01  1.1848673265506919e+01  -9.3963808260809198e+00  -2.2480897086379990e+01  8.4300851976873190e+00  -1.7718595763107803e+00  -1.2472562992649067e+01  1.6216621836374263e+00  -2.2318307133087814e+01  -5.5849018890425830e+00  4.4245859150444877e+00  9.0958140830844112e+00  1.8715902415027565e+00  4.1665313816283595e-01  4.3125638157337711e+00  5.6251300805418643e+00  -3.8585542218060285e+00  -1.1785410003356752e+01  -2.5332593879072407e+00  2.9878575368345817e+00  1.2738951803024512e+00  5.3530095788146523e+00  7.7591539382751806e+00  -2.0434325373375422e+01  -8.2495492909393775e+00  9.8874224757554552e-01  5.1425714738159130e+00  7.0992054097271522e+00  -1.4004056924330067e+01  -1.0774847861048237e+01  -8.6655136741322671e+00  -2.4446525417102858e+01  6.0248420159707443e+00  -1.0075594621923880e+01  -7.9103893264602849e+00  -1.0985115382372761e+01  -3.0803089586183439e+00  -3.4152136869193086e+00  -3.8076538352025073e+00  2.3825203084743971e+00  -4.6717681159389768e+00  -6.3911424098140479e+00  1.8945306872899434e+00  -4.7839117627180929e+00  -6.1288326455635476e+00  -4.5795445691119424e-01  4.7260133124842509e+00  -1.5479841016969351e-01  4.1423247801898837e+00  7.8915973603004899e+00  -2.2391666223984380e+01  -6.9191745608839632e+00  2.4808018385389614e+00  7.2710974858842992e+00  -1.3506891389548709e+01  9.4532425185110416e+00  9.1372139272311461e+00  9.8181207503649937e+00  -4.8977260566732346e+00  1.0106750082566666e+01  -1.7702404121998484e+01  -2.0297016723735847e+01  -9.9212889998923597e+00  -5.3553533080138145e+00  -2.1907094969655816e+01  -3.9481986401149158e+00  9.9984862417233211e-01  -2.5861688271570968e+00  9.5902980967569817e+00  2.9471526453599952e+00  3.6911548791828048e+00  6.7486924517945113e+00  4.3611839137976069e+00  -1.7079894347475582e+00  -1.7259234876207077e+00  -4.7980040400998991e+00  -3.5386057365413350e+00  -4.5814835586607714e+00  -1.9903836686771146e+00  -2.2446818355299577e+01  2.1254127362617110e+00  -2.2085647431434818e+01  -8.3456387160375300e-01  -8.5082349774718722e+00  7.4280991790865887e+00  -1.4952196313314683e+01  -1.2991781613370875e+01  -1.4468131336431451e+01  5.7326595630830726e+00  2.8300527938066704e+00  2.2313966907722600e+00  -5.8459510982169007e+00  5.8662038568164085e+00  -4.7223308617988033e+00  -2.0779366115649928e+01  -2.2907764518981924e+01  -2.0943701512741704e+01  -2.5788481289443610e+01  -1.9214438718815195e+01  -1.0327706726569159e+00  7.1125356324138389e+00  -1.1841349284980922e+01  -1.0453209888540502e+00  -1.2053247819967726e+01  -1.9527364143228397e+01  -6.6491367664304573e+00  -1.4326004847636855e+00  -1.7401560874832351e+00  1.6366363812965874e+00  -5.7267233752080315e+00  2.2727354302295169e+00  6.5537913978798068e+00  1.1761060291689857e+01  -2.1705550269700979e+01  5.8254732935524371e+00  7.1503048674908163e+00  4.7062328677468983e+00  -5.9004676570516414e+00  -9.9193781502874288e+00  -1.5483220488801006e+01  -8.3654411256160834e+00  -2.8513330326394759e+00  -4.8267121671753488e+00  -1.7648435937402340e+00  -2.2099868306265784e+00  -1.2387506308727200e+01  -1.1756825256282639e+01  -1.5849292916255704e+01  -4.1077507419365107e+00  -3.5130701636032522e+00  3.4808154972883254e+00  -1.0511565133580762e+01  -1.3629687717070185e+01  2.2070507086625746e+00  -8.0114102876479532e+00  -2.0827812854941559e+01  1.7203732804086298e+00  3.3111781880649288e-01  8.4957484736140887e-01  7.6506266806729952e+00  -9.2735925856563544e+00  -1.0475726526695945e+01  3.9025549014006833e+00  -7.3861809594133163e+00  -4.6400490046036191e+00  -1.4447577478379876e+00  8.9101342511306498e+00  -8.7798722922311301e-01  -6.8966877107992568e+00  -1.3424177559537897e+01  -1.9509918067563031e+01  4.4803014381049433e+00  -1.2960230367046637e+00  1.1093013330817962e+01  -4.9436773776467968e-01  -8.9793396255235902e-01  4.9681249755323114e+00  2.2787255318771420e+00  2.9182049161889205e+00  -7.9182481335253714e+00  1.2638248376098564e+00  -2.2411837778675178e+01  1.0298657369585305e+01  9.6760839800504908e+00  7.5941699574114550e+00  -1.0096637290226286e-01  -1.7955829112919766e+01  -1.0110187185429522e+01  -1.3444176838678521e+01  -1.0303098612403005e+01  -1.9004221475444542e+01  -7.7300753913998115e+00  -1.0828830819340396e+01  1.2019817119496516e-01  5.2310651919322417e+00  6.4106108196343250e+00  -7.5944453930028608e+00  -8.5411654403195136e+00  -1.1703354511370769e+01  -1.5670012534863364e+01  -1.0175704037902163e+01  -1.4203670009253010e+01  -1.7582519204023814e+01  8.0197839508932223e+00  -9.3884837059565029e+00  -2.1789717180727834e+01  -7.5439911222759779e+00  -1.1099452004047050e+01  -1.4651593469544034e+01  -2.0542753499824435e+00  -1.2782012010094441e+01  -1.4780214089279697e+01  1.2468865142303141e+01  -1.8561937693922907e+01  -1.5800916720483245e+01  -1.7384905672807044e+01  9.1327951646915224e+00  3.8246440367268575e-01  1.1970874916018237e+01  -8.9526429105423997e+00  1.1281675017044366e+01  -2.4301510137620621e+00  -7.2830618664166851e+00  -3.3349243822902679e+00  -1.5811518244594829e+01  -8.4991458378344333e+00  -4.0646383250854399e+00  -5.1853246530682400e+00  -5.5687666512870022e+00  -9.3562157600976592e-01  1.0775577601012664e+01  -1.0781933305661035e+01  7.2717155020824897e+00  -5.9803463420026688e+00  -3.7938062488178255e+00  7.6131295041817379e+00  -1.1108687318660206e+01  5.4572983869150313e+00  7.7730161291508315e+00  4.1422708028356316e+00  3.6797906450699364e-01  3.6229578494366201e+00  -6.4681915164888277e+00  -1.1827216612759873e+01  1.8017093165099742e+00  -5.7663594894040431e+00  -1.9403820214541973e+01  -2.3384424006656786e+01  5.8284321965691737e+00  -2.3978755837270807e+01  -1.0825688700290547e+01  -1.9075201576549143e+00  -5.3928723635725359e-02  -2.9175171276823106e+00  -8.8803902691693448e+00  -1.3181536660378661e+01  -2.4163266275838666e+01  -1.8147465124109544e+01  -1.4936766694853908e+01  -1.3911598225208440e+01  -1.7269531670654370e+01  -7.4995205382574985e+00  -4.9779698641961900e-01  -2.8916455631779852e+00  -4.3627552706962325e+00  4.9904926620506176e+00  -1.9635572800354399e+01  -1.3119169491854807e+01  -3.4533190380757302e+00  3.6324094812581751e+00  -1.7843205735646727e+01  -2.5660359611900542e+01  -7.9111469622431541e+00  3.2670149861202653e-02  -1.6687235922722412e+01  -2.4510320933181902e+00  -1.1294617979411065e+01  -6.7593219024641495e+00  -8.6022988843383652e-01  -1.4019890376574972e+01  6.1295677148949865e+00  -1.3430253077204362e+01  -7.1737663107892384e+00  -3.6144509576648287e-01  -4.7372471205432811e+00  8.3301018097023984e+00  1.2703918195651237e+01  1.1999950796264054e+01  6.7947124360437208e+00  -9.6400546181377660e+00  -2.3456885494477545e-01  9.0283672398698407e+00  3.6503919959094824e+00  5.1896578426696829e+00  -9.2295969173048853e+00  -1.6490593541756425e+01  -1.3258066989575466e+01  -1.6031529439308198e+01  -5.0083378414033080e+00  1.0738098615105308e+01  9.8204947896845987e+00  1.4744041314750449e+01  9.5137995723419488e-01  8.2834629664993624e+00  1.1123559565716235e+01  -1.2848377476276635e+01  6.1035958363814447e-01  -1.7196987554562313e+01  9.5820396740475804e+00  -2.7920936678311179e+00  -2.0792869030141052e+01  -1.9378858438297318e+01  5.6619646238550132e+00  -8.2239970638610327e+00  -3.0123279892452554e-01  -6.4367155117407604e-01  1.2618386040430394e+01  8.6820220245685551e+00  -1.6079201871715515e+01  -1.2820337784589482e+01  -1.0258682653672659e+01  -1.1597004725156943e+00  -4.4285687877960473e+00  2.8761553506094080e+00  -1.7292852034734288e+01  -1.5587216474027551e+01  3.1846060576784239e+00  2.7721630266827635e+00  -1.9812801280535499e+01  -1.5397999400036692e+01  5.5833615797751168e+00  -6.3532024026547989e+00  -3.1459501163932742e+00  1.4283613503944625e+00  -2.7118469082147780e+00  -1.7042043974543162e+00  -1.0070128480385193e+01  -1.6523508834776997e+01  -2.0994425719552247e+01  2.9982623301802169e+00  7.9149646360291488e+00  -5.5323112068516815e+00  -1.9323962575025739e+00  9.1111478808336344e+00  -2.3895445612517619e+01  -1.0565847715208896e+01  6.2803428730906363e+00  0.0000000000000000e+00  2.0558690806457616e+00  -4.0434868496777421e+00  -1.1887268664403720e+01  -7.4117582344897404e+00  -8.4082334043545046e+00  3.0203970426744955e+00  -1.2034325929346895e+01  -7.0130848011828917e+00  -1.8236582773238840e+01  -2.0420021071151173e+00  -4.1290892097754925e+00  1.1381895657287984e+01  1.5991832520348051e-01  -3.6158551962242012e+00  -3.6294164012435890e+00  -1.0075584787199670e+01  4.0096200704602154e+00  2.9791847673883867e+00  8.5361806423176549e+00  -1.6156723911517922e+01  1.6995545811994524e+00  -1.4770656078584228e+01  -1.4500807576537766e+00  6.6211168686100121e+00  -1.8956926781069246e+01  -6.8293754277458172e+00  -4.8397198093942384e+00  -6.4463525677845928e+00  2.5329071928372293e-01  -1.9050065553456974e+01  -3.5807538192844426e+00  -1.3495408273516372e+01  -6.0225014102886130e+00  -7.5434789147798389e+00  1.2476950084901864e+01  4.9966950059493254e+00  -1.6142383540640477e+01  -7.167416