<?xml version="1.0"?>
<VTKFile type="UnstructuredGrid"  version="0.1"  >
<UnstructuredGrid>
<Piece  NumberOfPoints="4978" NumberOfCells="9630">
<Points>
<DataArray  type="Float64"  NumberOfComponents="3"  format="ascii">0 1.5 0  0 0 0  0.06190941752361886 0 0  0.06190941752361886 0.02304324263930277 0  0.07687367483109155 0.06663263502519032 0  0.1051805799723963 0.1030013474942385 0  0.1437626405485843 0.128208265731708 0  0.1884388916338735 0.1395218290209338 0  0.2343679681997119 0.1357160372315063 0  0.2765727421371398 0.117203306956754 0  0.3104796713154951 0.0859897797765535 0  0.3324144138380889 0.04545792568865569 0  0.34 0 0  0.4722134970410927 0 0  0.4722134970410927 0.02388743731615415 0  0.4894717723551502 0.0684361811740563 0  0.5216574972706967 0.1037422395464312 0  0.5644238112906292 0.1250373336124665 0  0.6119948867302293 0.1294454429183545 0  0.6579459862509499 0.1163712278761581 0  0.6960711592386857 0.08758043367405244 0  0.7212213898225662 0.04696141660432988 0  0.73 0 0  0.85 0 0  0.857341522555727 0.04635254915624212 0  0.8786474508437579 0.08816778784387098 0  0.9118322121561291 0.1213525491562421 0  0.9536474508437579 0.142658477444273 0  1 0.15 0  1.046352549156242 0.142658477444273 0  1.088167787843871 0.1213525491562421 0  1.121352549156242 0.08816778784387097 0  1.142658477444273 0.04635254915624211 0  1.15 0 0  1.461909417523619 0 0  1.461909417523619 0.02304324263930277 0  1.476873674831092 0.06663263502519032 0  1.505180579972396 0.1030013474942385 0  1.543762640548584 0.128208265731708 0  1.588438891633874 0.1395218290209338 0  1.634367968199712 0.1357160372315063 0  1.67657274213714 0.117203306956754 0  1.710479671315495 0.0859897797765535 0  1.732414413838089 0.04545792568865569 0  1.74 0 0  1.78 0 0  1.789134456098646 0.04592201188381079 0  1.815147186257614 0.08485281374238571 0  1.854077988116189 0.1108655439013544 0  1.9 0.12 0  1.945922011883811 0.1108655439013544 0  1.984852813742386 0.08485281374238569 0  2.010865543901355 0.04592201188381077 0  2.02 0 0  2.161909417523619 0 0  2.161909417523619 0.02304324263930277 0  2.176873674831092 0.06663263502519032 0  2.205180579972396 0.1030013474942385 0  2.243762640548584 0.128208265731708 0  2.288438891633873 0.1395218290209338 0  2.334367968199712 0.1357160372315063 0  2.37657274213714 0.117203306956754 0  2.410479671315495 0.0859897797765535 0  2.432414413838089 0.04545792568865569 0  2.44 0 0  2.472213497041093 0 0  2.472213497041093 0.02388743731615415 0  2.48947177235515 0.0684361811740563 0  2.521657497270697 0.1037422395464312 0  2.564423811290629 0.1250373336124665 0  2.611994886730229 0.1294454429183545 0  2.65794598625095 0.1163712278761581 0  2.696071159238686 0.08758043367405244 0  2.721221389822567 0.04696141660432988 0  2.73 0 0  3 0 0  3 1.5 0  0 0.75 0  3 0.75 0  1.5 1.5 0  0 0.375 0  0 0.1875 0  0 0.09375 0  0.75 1.5 0  2.25 1.5 0  1.137279452465634 0.8667483509386543 0  2.055384907633385 0.8149748422668953 0  0.5545701656450307 0.9454298343549693 0  2.545804583542266 1.045804583542266 0  2.462951104370831 0.5854482317237805 0  1.6063536999151 1.018574336065804 0  0.7683179692414909 0.5511078775270282 0  1.647896012796697 0.5780189144999826 0  1.875 1.5 0  0.3683226130580748 0.5893782185394094 0  0.375 1.5 0  0 1.125 0  3 0.375 0  1.125 1.5 0  3 1.125 0  2.625 1.5 0  1.247216233241016 0.4851891764902285 0  0.8779404074027722 1.143194262378568 0  1.992337703792022 0.4642129848858538 0  2.200035536160075 1.144037289792772 0  1.3125 1.206118267007311 0  1.882280687299076 1.18026905614258 0  0.8375010042452264 0.8437030129736524 0  0.2703628106324028 0.8673582108832857 0  0.336944444033578 1.181320038574892 0  1.424720841531434 0.7792108746582741 0  2.763716218670896 0.5625 0  0.6112325230261646 1.216037756380734 0  2.429292395855053 1.293345775631689 0  2.798691155259055 0.9375 0  2.340750225085827 0.8450755885956063 0  2.74506315455788 1.24506315455788 0  0.4115012634770826 0.3359864655288552 0  1.6875 1.5 0  1.553212834656815 1.259295117559057 0  1.783849920010049 0.8130750647527071 0  2.590242300399914 0.800172794523538 0  2.206538789959823 0.6067588023913982 0  1.022769083327432 0.627137676743421 0  2.0625 1.5 0  2.566013274303806 0.3667751817948443 0  2.317230353528816 0.3853650267397287 0  0.9546600707351991 0.3912757388497677 0  1.76490060939521 0.3540000691256479 0  1.398169292756645 0.3089248951275104 0  0.1875 1.5 0  0.6961815191548208 0.3380429757712475 0  0.6390751493076395 0.7361434669345621 0  1.385952842918209 0.9972233609662619 0  1.082019261833385 1.265823315390121 0  2.784258672215756 0.3048233224522298 0  0 0.5625 0  0.2130557952202133 0.4325455696870932 0  2.110276358430479 0.2903936515686117 0  0 1.3125 0  0.5618175915722093 0.5022778936897083 0  1.438605690073396 0.5702366817214194 0  1.851778102902867 0.6169409446553686 0  0.9375 1.5 0  1.918499765346388 0.9737703250858507 0  1.066617221574711 1.060327143126178 0  0.17830064634795 0.65625 0  1.139464543633635 0.3182162642668528 0  1.214887260891528 0.6824917486258804 0  0.4470960700565646 0.7803305254813445 0  2.056073894593081 1.292965518236122 0  0.7800417460951754 1.309431349558015 0  0.7102942521579887 1.054059105222724 0  2.772203778896419 0.7508393899039921 0  3 0.9375 0  2.4375 1.5 0  0.5625 1.5 0  3 0.5625 0  1.3125 1.5 0  0 0.9375 0  3 1.3125 0  2.8125 1.5 0  3 0.1875 0  1.74009613212014 1.312845810865967 0  0.1858279553328271 1.04932632064409 0  1.582414108002925 0.3243096672004901 0  0.4576542986122824 1.328517530191622 0  1.30595470876181 0 0  0.1616828829631953 1.229471150973137 0  1.600689448835705 0.8342777580615786 0  2.184954406689295 0.9543424310663166 0  2.356848459734244 1.033731425282726 0  2.249618867339344 1.318565528322325 0  2.031012140730151 0.6383085966483963 0  1.264473591492607 0.1926369230867345 0  1.93294708275428 0.2969945700235964 0  1.406271966518558 1.353045118606616 0  0.2855042944080262 1.351202341158466 0  2.163692386827529 0.4469681835123645 0  2.058709899218631 1.05982604745508 0  1.21875 1.361760465218127 0  1.232585115983139 1.060656719142284 0  1.682328919476849 1.161572426192166 0  0.4864612871934715 1.100927295036068 0  2.842393003195402 0.1547034389615206 0  1.901710724058898 1.340659870484523 0  2.578488906869203 1.212378831230944 0  0.346730023619794 1.013455011579226 0  1.758789788261688 0.970834021568154 0  0.9209577900333827 0.984909924281538 0  2.461973640748163 0.2490632223012221 0  2.833434714842781 1.102015011431888 0  1.485476187845101 1.118115752354218 0  0.7869575052851041 0.2127716822913992 0  1.091585464669657 0.4673676525872368 0  0.9308375558444295 1.286291202675726 0  2.609275627299536 0.5207885309723005 0  2.859418780372727 0.4404724026784034 0  0.1368795735450182 0.2913992261536034 0  0.5088670694303536 0.6431238265444117 0  0.9924988599062848 0.7887715626383616 0  0.8674753477047706 0.6821390867986818 0  0.6993572585883594 0.9038049302516018 0  1.53924450853783 0.6818717864694561 0  1.27954362181495 0.818196911265721 0  2.885754890315292 0.65625 0  0.1199579452929171 0.84375 0  0.3101130847613819 0.7251157056441525 0  2.683488575489726 1.10528265125029 0  2.637912450120847 1.350340704724588 0  0.65625 1.387568746661148 0  2.204969505432462 0.7645924845263576 0  2.34230217156612 0.6870332922078795 0  2.458336421316689 0.930056573232228 0  1.547170662421109 0.4687109428674099 0  0.55426355401875 0.2785752421136156 0  1.927690911684502 0.7425770788416013 0  2.650983472818039 0.6639703826486528 0  0.2807744135836687 0.2731407085328489 0  2.697063502273202 0.4130460425434029 0  1.768721210125562 0.4985606178023466 0  1.59375 1.394491048145999 0  1.03125 1.39617417476255 0  2.649124789533757 0.9376608889715211 0  2.899345577629528 0.84375 0  2.448792339301353 1.151333513094988 0  2.455516477512143 0.7671738041202795 0  0.1479512725554237 1.367277900867101 0  1.733007556765436 0.6856365299097277 0  2.865 0 0  0.407900401917371 0.1920322062602331 0  1.482893533441057 0.9020086108979886 0  2.902194538181383 1.21875 0  2.860324471164851 1.360324471164851 0  0.9128790560808855 0.5311054613533476 0  0.7396036279203969 1.183264973390871 0  1.379392725427689 0.4456149894503371 0  0.8305263666170877 0.339868595109382 0  2.352639297837627 1.399880277695907 0  2.15625 1.5 0  2.32277762299786 1.203473773731512 0  1.818471673600783 0.235727380341035 0  1.269129800285538 0.3222823294390822 0  2.329228807632851 0.5297324129610972 0  0.430777275012463 0.469645907614299 0  1.390502090335328 0.1630587681988043 0  1.149408636841162 1.157447166816889 0  1.687853147042319 0.2519031106491252 0  0.3941048876243997 0.8956837842542459 0  1.877835046604575 0.410724628626283 0  1.348230251479045 0.6691802479050837 0  2.336954765206726 0.2613063289913201 0  2.514033953321691 1.393470229958569 0  0 0.46875 0  0.1287800079303892 0.5340043503292357 0  2.441328451749267 0.3721441168812449 0  0.9333932382689634 0.2670516659043625 0  1.13959172768211 0.5827503401695603 0  0.8703665929291606 1.395134656069543 0  1.240468926246127 0.9364063612525604 0  1.433475419570003 1.229904687600933 0  1.020534477629395 0.9101139083191684 0  1.108777781305164 0.7462713331880694 0  0.6468125623079457 0.6038935958199032 0  1.665312060212151 0.428962863572448 0  0.2512528931669099 0.5500044694745148 0  2.66971919386773 0.2450375495263612 0  2.901855502368762 0.2640467328343441 0  2.063534245742155 0.9373123558679215 0  2.031795413587333 0.1972457754676831 0  1.836924180675512 1.065887991891963 0  1.001601941364679 1.16852535211421 0  0.8051266927803291 0.9581030042697194 0  0.7620228346493961 0.7461373576581022 0  3 1.03125 0  2.084817260746984 1.176705869274554 0  2.085981885570153 0.5347538843754811 0  1.496744890324478 0.239335226969819 0  1.894594308711337 0.8570406362709689 0  1.78125 1.5 0  2.109375 1.394928085212741 0  2.71875 1.5 0  0.4943575340553394 1.217544978302146 0  0.5937185858435849 1.055241883498284 0  2.227680725187669 0.3075299344665331 0  0.5158109084499103 0.3891628929402524 0  1.96875 1.5 0  0.6036564600183
[...]
<PointData  Scalars="f_66"> 
<DataArray  type="Float64"  Name="f_66"  format="ascii">1.3519951229082150e+01  -2.7733916440519543e+01  -2.7042000767169252e+01  -2.6185179896090322e+01  -2.4379146736671220e+01  -2.3132211522556968e+01  -2.0569893971183465e+01  -2.0428782516111994e+01  -2.2328228074337055e+01  -2.3065943575607342e+01  -2.4452284705359645e+01  -2.3617992855437439e+01  -2.4278825951455083e+01  -2.1468620502258169e+01  -2.1516126775236891e+01  -2.1083793162076475e+01  -2.1268483459035384e+01  -2.2631674863245099e+01  -2.2190277848058095e+01  -2.2027831116277088e+01  -2.0480795220819093e+01  -2.0555148246277898e+01  -2.0531601014009812e+01  -2.0836536797582461e+01  -2.0624896562824397e+01  -2.1995978341745683e+01  -2.1319511972994636e+01  -2.0099506516160357e+01  -1.8297652270307594e+01  -1.7248939313526176e+01  -1.9166963525817415e+01  -2.0143387523121437e+01  -2.1568565033361786e+01  -2.3475548060197220e+01  -2.0327292319416937e+01  -1.9310067832337484e+01  -2.0081980632540997e+01  -1.9890542870356974e+01  -1.8201250968622762e+01  -1.7041038562720612e+01  -1.5102118629579037e+01  -1.6454082873036938e+01  -1.8182574339442496e+01  -1.9467799786325564e+01  -2.1142674481149868e+01  -2.1039330344392916e+01  -1.9200711580146816e+01  -1.8121842310474818e+01  -1.6884091978363070e+01  -1.5329626175834560e+01  -1.4211655892798074e+01  -1.5971805315334937e+01  -1.7281885463379819e+01  -1.8418560097806662e+01  -1.8240094975688372e+01  -1.7384649380659056e+01  -1.5758656241907405e+01  -1.4338667550624553e+01  -1.2351944311682267e+01  -1.2057147857119343e+01  -1.2763919584940215e+01  -1.3432974394350953e+01  -1.2784637008340569e+01  -1.2829943127040286e+01  -1.4455178981694736e+01  -1.4262833890914671e+01  -1.3426568774056094e+01  -1.2203565384238802e+01  -1.1118979331158467e+01  -9.9287649087530649e+00  -1.0165205086285475e+01  -1.0748631345564043e+01  -1.1290059820315113e+01  -7.1894292248764122e+00  -7.3478358859686246e+00  0.0000000000000000e+00  0.0000000000000000e+00  -8.8179661399764679e+00  0.0000000000000000e+00  1.8161346868153647e+01  -1.8358371228218658e+01  -2.2207782929539714e+01  -2.3959554902661591e+01  1.3036237448746785e+01  1.5095158668041018e+01  -2.3197128910678435e+00  -6.9958815713022759e-01  -2.1267935779415752e+00  3.8466851985129504e+00  -3.7868927690939116e+00  2.7634631531854561e+00  -1.1356214695136956e+01  -7.5288350181528445e+00  1.6415680329271307e+01  -1.1642356879636740e+01  1.3016066021111820e+01  1.1473143265157209e+00  0.0000000000000000e+00  1.4891238316598333e+01  0.0000000000000000e+00  1.3408380405996960e+01  -1.1212014721539976e+01  3.7910695074663945e+00  -8.5481719843033090e+00  6.3664058242791217e+00  6.6057512678992065e+00  7.1088206762706907e+00  -3.8272482058821913e+00  -4.9149447470184420e+00  3.3546398271417450e+00  -3.5391995983732660e+00  -2.4639218556909759e+00  4.9320014030201511e+00  9.0597165823459367e+00  1.0139677934073941e+00  6.7495124901019132e-01  4.9675645412370608e+00  -1.7881700549444087e+01  1.5308495876741926e+01  8.4963340211986509e+00  -1.5944514831640950e+00  4.2837953347422542e-01  -4.5463759818157294e+00  -8.5550393089989054e+00  1.8031564924040083e+01  -6.1794916945884646e+00  -8.1782090860143093e+00  -1.4689664701907111e+01  -1.2332995692643664e+01  -1.4937707993103261e+01  1.1596934165104809e+01  -1.7042018082974238e+01  -7.0973626910184873e+00  1.6182203828118482e+00  7.4105687360055033e+00  -5.2150114982239080e+00  -1.3690018342096842e+01  -1.6217115933828534e+01  -1.1766065659496979e+01  6.2184250307241902e+00  -1.3349673479055468e+01  -8.5163208295054389e+00  -5.8566190390236557e+00  1.5765322006212248e+01  2.4112625593540664e+00  2.2721935902329520e+00  -1.0636931872402110e+01  -1.5833058318679253e+01  -6.5380804029785251e+00  -6.5918757619894723e+00  9.8585021982803429e+00  7.7125678139007601e+00  1.1445622471307471e+00  -6.0324326310546739e-01  0.0000000000000000e+00  1.7497289593839483e+01  1.5048004397906707e+01  0.0000000000000000e+00  1.4605916069630437e+01  -3.8514881840749391e+00  0.0000000000000000e+00  8.9417115678665837e+00  0.0000000000000000e+00  1.0084660850322402e+01  -4.7268508830527572e-01  -1.3941124144929034e+01  7.4121256134062561e+00  -2.0127182270869010e+01  4.1235827930279134e+00  -1.6311205760938845e+00  2.3486751554060250e+00  4.1318144929233318e+00  1.0295350370984870e+01  -4.5381775355317515e+00  -1.8139812112814194e+01  -1.2692202924900327e+01  1.0450696351037500e+01  7.7702843578413354e+00  -8.1004597988008911e+00  4.5515795933158589e+00  1.0594090461859793e+01  2.8011882480854124e+00  6.3059859051872076e+00  1.6168115196833492e+00  -5.8672775153927690e+00  1.1043453364614509e+01  6.6132775533274630e+00  -9.0093366558215626e-01  1.9733761573036666e+00  1.4374512099677033e-02  -9.8124272942470423e+00  2.2281112619810202e+00  4.8187789507234093e+00  -1.9497902583648539e+01  -1.2312850884977106e+01  7.6341564836808926e+00  -3.3243114228422161e+00  -2.2356907497312877e+00  -1.9683511026062547e+01  -9.9317618760851705e+00  -4.6257258013713285e+00  -7.7449078038116808e+00  -2.6651005228384483e+00  -5.4652600645011749e+00  -2.9888313009411740e+00  -3.1844784093734296e-01  -5.9595693804439689e+00  -8.4087733115809886e+00  4.1391842179683591e+00  8.7532104512665079e+00  9.7096231261342894e+00  -1.4124995378713716e+00  -2.2057600234359462e+00  1.9028041943532892e+00  -1.0556668632767577e+01  -1.9101016890395602e+01  -2.7168951860592547e+00  -1.2373595359048886e+00  -1.9863159398816634e+01  -4.5925923201412449e+00  -8.9046047653553817e+00  1.2139650682169206e+01  1.1005347720998522e+01  2.2690763604506397e+00  7.7865368249079436e-01  5.9101357506521337e+00  -8.0228057089773730e-01  7.7835989559746448e+00  -4.6838825878412189e+00  -6.3319911102622664e+00  -2.1261520554911780e+01  -3.9911371363648740e-01  2.7958970961838836e+00  4.3550323445031180e+00  -1.1335327733695728e+01  4.4447478101884288e+00  -1.1710901267106474e+01  -1.6383195279850067e+01  1.2319090574212156e+01  1.7259243325789690e+01  7.5620524425752462e+00  -1.4727638625331887e+01  -1.5018131190558545e+01  -5.2025592056780194e+00  -1.4498136499491173e+01  -1.8313601867674439e+01  4.8750762960240666e+00  -1.4946864757460677e+01  -3.7750244850550758e+00  -1.0468130035619144e+01  -6.4128448219462371e+00  -1.0639156897718500e+01  1.0767114865814797e+01  -1.6065822457722131e+01  -1.3894673398105070e+01  -7.6733050797438143e+00  -1.7739705701166471e+01  -9.2827079688907066e+00  1.0816123064684401e+01  -2.2322553078613125e-01  7.3873172891621950e+00  -1.5391405895736561e+00  -5.3659443513571849e+00  -1.0428938653174958e+01  -1.1009447150849393e+01  -1.3106413004072936e+01  -7.3265777995260306e+00  -3.4309383872248049e+00  1.9094338445085144e+00  -1.4231899644051884e+01  4.3523055620393150e+00  4.8470100576493076e+00  -1.0706279683257813e+00  -6.4801723098211994e+00  0.0000000000000000e+00  7.1409991868221336e+00  -6.5714514385676992e+00  -1.6202685003847897e+01  -2.8495147896418005e-01  1.8524394252871694e+01  1.3148967014352076e+01  1.5141847118449020e+01  4.5766694609974587e+00  7.9586758409191904e-01  -1.0550566114018768e+01  -1.6388951073785552e+01  1.5679990251509647e+01  -4.5153498637723350e+00  -1.3922854975067187e+01  -1.9896757028245631e+01  -5.3539864202131646e+00  -7.5407273429563277e+00  6.2300642508659587e-01  7.2774241378086835e+00  1.4777373451801628e+00  4.9292024169059632e+00  3.9755072204212514e+00  -1.7348788887783637e+00  -1.6145438142321208e+01  0.0000000000000000e+00  -1.6775984792547142e+01  -1.3563819074439168e+01  -1.2790953887758532e+00  -1.3034459546498411e+00  -1.2757968660331512e+01  8.7130336162033188e+00  -9.1904456593972705e-01  -1.3488602771164171e+00  -2.9707531497742536e+00  2.2446957551557083e+00  7.4473941473454239e+00  -3.2913666537372617e+00  1.2281432350829315e+01  8.2429115101355344e-01  -1.7234242304928429e+01  -1.0735256058226684e+01  -1.3628003363830519e+01  -8.5537323371615397e+00  -8.0482143855990653e+00  -8.7672552738829967e+00  -2.7168914058886184e-01  -7.9006819291120927e+00  -8.0453247239946428e+00  9.5461228403190450e+00  7.9648829230504887e+00  -9.0923431380513762e+00  3.9108034615551608e+00  -1.1217244193556661e+01  2.3513404593676963e+00  -1.8210209393426293e+01  1.2454053226044627e+01  0.0000000000000000e+00  -3.5581688818991415e+00  6.1096343859372979e+00  6.2892246283996318e+00  1.5117763750215525e+00  3.6080624545363564e+00  2.1475400651315351e+00  -2.3458042177152327e+00  2.4954244153906546e+00  1.3063933411103523e+01  -3.9459984040850995e+00  1.3235256853719701e+00  1.1729655790518622e+01  9.1729797377969540e+00  -1.3590107323450498e+01  -1.5227267689933344e+01  0.0000000000000000e+00  5.2662063759712350e+00  -2.0654513287599556e+01  -4.4528547724947529e+00  -7.4068092850066831e+00  -9.0189023001322575e+00  -7.7699287689148049e+00  -2.4084060532197547e+00  9.1659845652659797e+00  1.2412677919492594e+01  9.8412288857238170e+00  -6.4562094464390114e+00  7.0237475378451748e+00  1.0527332385524124e+01  5.6543792546510332e+00  8.4176132545238538e+00  1.0809946160829501e+01  4.3342634168854586e+00  -5.7459339776168772e+00  1.6016414496114144e+00  7.0343053611062123e-01  2.4612381718864476e+00  1.1285498148523242e+01  -6.8579477857985589e+00  9.1547761099627927e+00  5.2548567313745078e+00  5.6227765425530007e-01  -1.2323030038419752e+01  -1.5256868364785742e+01  -6.0381966417717674e+00  3.0180317045336027e+00  -1.1060467176250201e+01  3.5764842038424121e+00  4.5692652296026006e+00  -1.5291359717102240e+00  -1.5293485084063760e-01  3.0730364813499600e-01  1.1700576680179109e+01  8.9883098102720638e+00  1.6488877399470653e+01  0.0000000000000000e+00  0.0000000000000000e+00  1.3823542859230594e+01  1.4359066983767342e+01  -6.3749828755442968e+00  0.0000000000000000e+00  -2.0590957431242447e+01  0.0000000000000000e+00  1.7232878342631167e+01  1.4678984814877225e+01  1.5164626418618045e+01  1.5524368353213934e+01  1.3442278692243327e+01  1.5071535003073334e+01  -1.6884851825201466e+01  6.7242354411435974e+00  5.5114316152347598e-01  -4.3685360422307422e+00  -6.2179494264678228e+00  -1.6251085911400267e+01  -1.5795064709743917e+01  -1.0710695765713023e+01  -1.0127783915770920e+00  5.8777905553404142e-01  -2.4166394374869138e+00  -1.9370095880550235e+01  -2.0499562688417218e+01  -2.3601816518124772e+00  3.5585596115459430e+00  5.6912286895634052e+00  4.6485588559301645e+00  -4.1893169139489856e+00  -2.8286870997618130e+00  1.2816456370450030e+01  9.4528607733729562e+00  1.8283527409015567e+00  -4.7155459123473955e+00  -1.2153887982775540e+01  -1.4558336302642074e+01  -1.0052738115060635e+01  -6.3777657040346361e+00  -1.3063499251924519e+01  -2.6067448895372385e+00  -1.1809112936931573e+01  9.3674961847816398e+00  -4.9956477691944707e+00  -1.3865881186858692e+01  -1.2738239042996804e+01  -1.6428873632021226e+01  1.2041444799067011e+00  -1.5013265063456412e+01  1.9427317899274943e-01  5.7425806193652678e+00  -2.8413780525564420e+00  2.2036034483285968e-01  1.3298450823514033e+01  -1.8506226244165262e+01  1.3651458244276480e+01  -8.4644946082389740e+00  -2.1230307479401954e+01  1.0036517572433175e+01  -7.8947355203779568e-01  -1.1435032263102869e+01  2.5762351729930737e+00  -2.0885974996082577e+01  -5.8935527244193882e+00  5.4619442233838384e+00  1.0973161615854595e+01  2.8160314959663784e+00  1.4319978945935685e+00  5.3131355163994298e+00  6.8764912602325463e+00  -2.8480639453851735e+00  -1.0740469664857418e+01  -2.4015648239982763e+00  3.4844833678134841e+00  1.6166358671298848e+00  6.2761351032438153e+00  8.7736799769100173e+00  -1.9302993572655083e+01  -7.2575435510130477e+00  2.0247774797308979e+00  6.1950852248591382e+00  8.1041800078710313e+00  -1.2854042369423190e+01  -9.9677057845961414e+00  -7.8195762215077051e+00  -2.2350167959026404e+01  7.0023764223020253e+00  -9.0544218779234331e+00  -6.8771537630570441e+00  -9.9925602817936596e+00  -3.4097334524158542e+00  -3.2566762470207546e+00  -4.3163052647346580e+00  3.4337382644576295e+00  -3.6770878026128875e+00  -5.3910374644967591e+00  2.8540865781941069e+00  -6.3363747656288449e+00  -5.0837196002001894e+00  5.7231765939879653e-01  5.7045490959301519e+00  5.5387499356173564e-01  4.4526814660411977e+00  8.9775814789561501e+00  -2.1035820276755398e+01  -6.9318080948454295e+00  3.4830249613490092e+00  8.3918858208797893e+00  -1.2516114613403843e+01  1.1283950821720499e+01  1.0256194290481423e+01  1.1457577469463205e+01  -5.5979731838859630e+00  1.1655630877408374e+01  -1.6536396737769309e+01  -1.9177984915502481e+01  -8.9459928402110460e+00  -4.6854557527518370e+00  -2.0414527264900851e+01  -2.9436123322093328e+00  2.0105734866164915e+00  -2.2211815714273695e+00  1.0776379798701063e+01  3.2328990017951114e+00  4.7205251114718809e+00  7.7986405621174955e+00  5.6118122502139371e+00  -7.4870667479270681e-01  -6.8192173546666823e-01  -3.8168439289814939e+00  -2.5852660355527597e+00  -3.7651479145369469e+00  -1.0751961057070694e+00  -1.9156344620883857e+01  3.1073311526836602e+00  -2.0242842630146583e+01  1.9123488742746866e-01  -7.9918809747611110e+00  9.7637889334259835e+00  -1.3992785565458727e+01  -1.1975155392397136e+01  -1.3490205093906722e+01  6.7532817083183385e+00  3.8645470330610325e+00  3.2007383622411800e+00  -4.9687006134289451e+00  6.9157065136507878e+00  -4.6007527720581853e+00  -1.9385230327848543e+01  -2.1342987492028875e+01  -1.9744400014283610e+01  -2.3064918324954462e+01  -1.8082537045350879e+01  -1.0162957037194555e-01  8.1317965954691154e+00  -1.0875055848306610e+01  -1.2383741874481262e+00  -1.1014170113839770e+01  -1.8414358701182241e+01  -5.6332187820598660e+00  -1.4086178922546153e+00  -7.6887739502699792e-01  2.6618750692656796e+00  -5.1953276435256441e+00  3.2725347095294604e+00  7.6888235192566956e+00  1.3403571921602786e+01  -1.8947590219228303e+01  6.8780340648847158e+00  8.1758048248631923e+00  5.7098051831075853e+00  -4.9069424411646221e+00  -9.2474688734300088e+00  -1.4380500861594061e+01  -7.3586111660512241e+00  -1.8784017094084167e+00  -3.8418126620634538e+00  -7.5357935601733461e-01  -1.1798788060690717e+00  -1.1425682038163853e+01  -1.0738823164498690e+01  -1.4857020247875775e+01  -3.0917415708114491e+00  -2.4984718778226114e+00  4.7165802926496649e+00  -9.5023512429768200e+00  -1.2625262434746643e+01  2.7006193655731621e+00  -6.9987571110136910e+00  -1.9050717178739379e+01  2.5949693134185083e+00  1.4126077047894812e+00  1.4443623878354614e+00  8.7620791927296775e+00  -8.2337632022999987e+00  -9.7946937529696569e+00  4.9113700578384050e+00  -6.5613367149876964e+00  -3.6221442095420509e+00  -5.0760640386703137e-01  1.0814897117653839e+01  1.2072329771920297e-01  -6.5090723931351722e+00  -1.2406438382138321e+01  -1.8447173917989698e+01  5.4506328253194001e+00  -1.4120709317774307e+00  1.2669289041288263e+01  -4.2721966352879565e-01  -7.5788679379030366e-01  5.5801380090481958e+00  3.1405600909081803e+00  3.6760992394010441e+00  -6.9135647174018331e+00  2.1399703774028458e+00  -2.0768439897560516e+01  1.2523717433735557e+01  1.1469787787888986e+01  8.7793310789096637e+00  9.2151730209187566e-01  -1.6689151136222339e+01  -9.1336674126355799e+00  -1.2442313876842842e+01  -9.2940145609319593e+00  -1.7873171815666360e+01  -6.7459781176330607e+00  -9.7894556228553107e+00  9.9598529703610106e-01  6.3425009293832471e+00  7.4858600551860990e+00  -6.7014631406600289e+00  -7.5842513523019228e+00  -1.0709031169435892e+01  -1.4609820479576177e+01  -9.2283276184449292e+00  -1.3188557721178498e+01  -1.6615240908548888e+01  9.5486932929955621e+00  -8.4123331170317552e+00  -1.9306299211978232e+01  -6.5277777455373016e+00  -1.0063619603738701e+01  -1.3494227768826017e+01  -2.1526559557032958e+00  -1.1778301828291831e+01  -1.3650543027210485e+01  1.4464476671869336e+01  -1.7530506183466326e+01  -1.4773558075159116e+01  -1.6351406318673405e+01  1.0252270447691801e+01  1.1001115097474956e+00  1.4419233251322641e+01  -8.5731351556272184e+00  1.3026875721367114e+01  -1.4604666244279316e+00  -6.3143674978803972e+00  -2.3798871738252472e+00  -1.4812015027843213e+01  -7.4693413445795045e+00  -3.0954570141615294e+00  -4.1821438390027961e+00  -5.1056926142438801e+00  -2.0021581437792840e-01  1.2768625892089789e+01  -9.7817484509475641e+00  8.4574332949034670e+00  -6.7970698360622217e+00  -2.7866743453323397e+00  8.6250149034419721e+00  -1.0060626921911766e+01  6.5082376497382670e+00  8.8150340243765655e+00  5.1529823180589691e+00  7.9055243118766116e-01  4.4951916641953291e+00  -5.4812277236653832e+00  -1.0862401783719546e+01  2.8090875839982563e+00  -4.7462641665683734e+00  -1.7673874086636154e+01  -2.1148716235708584e+01  6.9419701101705078e+00  -2.0683904942477284e+01  -9.9200878802359540e+00  -8.8915987045200184e-01  9.2363366688904402e-01  -1.9306511251890504e+00  -7.8994383743716794e+00  -1.2306569566958506e+01  -2.2432776957015012e+01  -1.7147408040531179e+01  -1.3952437145998845e+01  -1.2856433372442078e+01  -1.6157056361280652e+01  -6.8286316920036096e+00  4.6570761589904769e-01  -2.0995955881934720e+00  -3.3405106560320132e+00  6.0118878154979791e+00  -1.8359959253211759e+01  -1.2107539775275253e+01  -2.4642915808951886e+00  4.6323555779537253e+00  -1.6783761966507797e+01  -2.2515680548525733e+01  -6.8587179716348912e+00  4.6114109730171521e-01  -1.5678336271491382e+01  -1.4146720128365340e+00  -1.0267476583285241e+01  -5.7957330596323864e+00  -8.9799765306592361e-01  -1.3008867509076131e+01  7.3372613361681793e+00  -1.2433110057318673e+01  -6.2165466320934284e+00  -6.8656825202704511e-02  -4.1875833334519621e+00  9.5574657571529915e+00  1.4645048698393891e+01  1.4385202573699235e+01  8.0550669828330186e+00  -8.6245599279025242e+00  -8.9532175832019514e-03  1.0835428208021032e+01  4.6852802641718405e+00  6.2061892359152528e+00  -8.2049064060764447e+00  -1.5467729916432232e+01  -1.2249954656677529e+01  -1.4911549605899550e+01  -4.0495472166242639e+00  1.2893455945467014e+01  1.1089014551498975e+01  1.8096444609728287e+01  2.0027988885223045e+00  9.6415388496515888e+00  1.3338387771696889e+01  -1.1819244732477429e+01  1.6066293109748282e+00  -1.5715739291023612e+01  1.0783785592807689e+01  -1.7775131301554792e+00  -1.9114971647926367e+01  -1.7951370860457370e+01  6.6142253808906215e+00  -8.5218411738457220e+00  6.7844452557492818e-01  3.3930527644181963e-01  1.4494853819094608e+01  9.7814330175951429e+00  -1.4377843255523043e+01  -1.1837763653404320e+01  -9.2335983054338850e+00  -2.5931133831210468e-01  -3.9898512473365328e+00  3.8685254493160870e+00  -1.5533306949965320e+01  -1.4498442257116453e+01  4.1239687126817959e+00  3.7945068000274254e+00  -1.8282541419763216e+01  -1.4414286926738228e+01  6.6210209350248324e+00  -5.3384497540468265e+00  -2.1288678148490483e+00  2.5242601334997552e+00  -2.0168621508966416e+00  -7.2810968349996719e-01  -9.1177659876498200e+00  -1.4493656041444627e+01  -1.9494369976788665e+01  4.0311223537900132e+00  8.8939837802815109e+00  -4.5197986508605910e+00  -1.8973037835810842e+00  1.0432620411213469e+01  -2.2465570363735370e+01  -9.7607176365144159e+00  7.3225022852766317e+00  0.0000000000000000e+00  2.5960399402750691e+00  -3.0463683662564049e+00  -1.0892182867618583e+01  -6.9158097181555052e+00  -7.7042783766666583e+00  4.0215459321731570e+00  -1.1030649941679586e+01  -6.0619014695851776e+00  -1.6786060561387536e+01  -1.0047484895980567e+00  -3.1017587072531927e+00  1.3833053431363304e+01  1.1747807647639157e+00  -4.2136674248512032e+00  -4.2865137122517023e+00  -9.2646354742998760e+00  5.0559000505826779e+00  3.3872578531837951e+00  9.6980642727517825e+00  -1.5053779825430169e+01  2.7123095603577982e+00  -1.3778484741730184e+01  -4.6312858254786021e-01  7.6606301192447610e+00  -1.6262730283491464e+01  -5.8322997113389601e+00  -3.8625614302999067e+00  -5.4343620205139072e+00  1.1992870445556885e+00  -1.8040741869719216e+01  -2.7182470724033516e+00  -1.2465226604001275e+01  -5.0525548482101259e+00  -6.5255877132531506e+00  1.4325072831963061e+01  5.9664220983575946e+00  -1.4909182496046496e+01  -6.1912157461707693e+00  5.518