<?xml version="1.0"?>
<VTKFile type="UnstructuredGrid"  version="0.1"  >
<UnstructuredGrid>
<Piece  NumberOfPoints="4978" NumberOfCells="9630">
<Points>
<DataArray  type="Float64"  NumberOfComponents="3"  format="ascii">0 1.5 0  0 0 0  0.06190941752361886 0 0  0.06190941752361886 0.02304324263930277 0  0.07687367483109155 0.06663263502519032 0  0.1051805799723963 0.1030013474942385 0  0.1437626405485843 0.128208265731708 0  0.1884388916338735 0.1395218290209338 0  0.2343679681997119 0.1357160372315063 0  0.2765727421371398 0.117203306956754 0  0.3104796713154951 0.0859897797765535 0  0.3324144138380889 0.04545792568865569 0  0.34 0 0  0.4722134970410927 0 0  0.4722134970410927 0.02388743731615415 0  0.4894717723551502 0.0684361811740563 0  0.5216574972706967 0.1037422395464312 0  0.5644238112906292 0.1250373336124665 0  0.6119948867302293 0.1294454429183545 0  0.6579459862509499 0.1163712278761581 0  0.6960711592386857 0.08758043367405244 0  0.7212213898225662 0.04696141660432988 0  0.73 0 0  0.85 0 0  0.857341522555727 0.04635254915624212 0  0.8786474508437579 0.08816778784387098 0  0.9118322121561291 0.1213525491562421 0  0.9536474508437579 0.142658477444273 0  1 0.15 0  1.046352549156242 0.142658477444273 0  1.088167787843871 0.1213525491562421 0  1.121352549156242 0.08816778784387097 0  1.142658477444273 0.04635254915624211 0  1.15 0 0  1.461909417523619 0 0  1.461909417523619 0.02304324263930277 0  1.476873674831092 0.06663263502519032 0  1.505180579972396 0.1030013474942385 0  1.543762640548584 0.128208265731708 0  1.588438891633874 0.1395218290209338 0  1.634367968199712 0.1357160372315063 0  1.67657274213714 0.117203306956754 0  1.710479671315495 0.0859897797765535 0  1.732414413838089 0.04545792568865569 0  1.74 0 0  1.78 0 0  1.789134456098646 0.04592201188381079 0  1.815147186257614 0.08485281374238571 0  1.854077988116189 0.1108655439013544 0  1.9 0.12 0  1.945922011883811 0.1108655439013544 0  1.984852813742386 0.08485281374238569 0  2.010865543901355 0.04592201188381077 0  2.02 0 0  2.161909417523619 0 0  2.161909417523619 0.02304324263930277 0  2.176873674831092 0.06663263502519032 0  2.205180579972396 0.1030013474942385 0  2.243762640548584 0.128208265731708 0  2.288438891633873 0.1395218290209338 0  2.334367968199712 0.1357160372315063 0  2.37657274213714 0.117203306956754 0  2.410479671315495 0.0859897797765535 0  2.432414413838089 0.04545792568865569 0  2.44 0 0  2.472213497041093 0 0  2.472213497041093 0.02388743731615415 0  2.48947177235515 0.0684361811740563 0  2.521657497270697 0.1037422395464312 0  2.564423811290629 0.1250373336124665 0  2.611994886730229 0.1294454429183545 0  2.65794598625095 0.1163712278761581 0  2.696071159238686 0.08758043367405244 0  2.721221389822567 0.04696141660432988 0  2.73 0 0  3 0 0  3 1.5 0  0 0.75 0  3 0.75 0  1.5 1.5 0  0 0.375 0  0 0.1875 0  0 0.09375 0  0.75 1.5 0  2.25 1.5 0  1.137279452465634 0.8667483509386543 0  2.055384907633385 0.8149748422668953 0  0.5545701656450307 0.9454298343549693 0  2.545804583542266 1.045804583542266 0  2.462951104370831 0.5854482317237805 0  1.6063536999151 1.018574336065804 0  0.7683179692414909 0.5511078775270282 0  1.647896012796697 0.5780189144999826 0  1.875 1.5 0  0.3683226130580748 0.5893782185394094 0  0.375 1.5 0  0 1.125 0  3 0.375 0  1.125 1.5 0  3 1.125 0  2.625 1.5 0  1.247216233241016 0.4851891764902285 0  0.8779404074027722 1.143194262378568 0  1.992337703792022 0.4642129848858538 0  2.200035536160075 1.144037289792772 0  1.3125 1.206118267007311 0  1.882280687299076 1.18026905614258 0  0.8375010042452264 0.8437030129736524 0  0.2703628106324028 0.8673582108832857 0  0.336944444033578 1.181320038574892 0  1.424720841531434 0.7792108746582741 0  2.763716218670896 0.5625 0  0.6112325230261646 1.216037756380734 0  2.429292395855053 1.293345775631689 0  2.798691155259055 0.9375 0  2.340750225085827 0.8450755885956063 0  2.74506315455788 1.24506315455788 0  0.4115012634770826 0.3359864655288552 0  1.6875 1.5 0  1.553212834656815 1.259295117559057 0  1.783849920010049 0.8130750647527071 0  2.590242300399914 0.800172794523538 0  2.206538789959823 0.6067588023913982 0  1.022769083327432 0.627137676743421 0  2.0625 1.5 0  2.566013274303806 0.3667751817948443 0  2.317230353528816 0.3853650267397287 0  0.9546600707351991 0.3912757388497677 0  1.76490060939521 0.3540000691256479 0  1.398169292756645 0.3089248951275104 0  0.1875 1.5 0  0.6961815191548208 0.3380429757712475 0  0.6390751493076395 0.7361434669345621 0  1.385952842918209 0.9972233609662619 0  1.082019261833385 1.265823315390121 0  2.784258672215756 0.3048233224522298 0  0 0.5625 0  0.2130557952202133 0.4325455696870932 0  2.110276358430479 0.2903936515686117 0  0 1.3125 0  0.5618175915722093 0.5022778936897083 0  1.438605690073396 0.5702366817214194 0  1.851778102902867 0.6169409446553686 0  0.9375 1.5 0  1.918499765346388 0.9737703250858507 0  1.066617221574711 1.060327143126178 0  0.17830064634795 0.65625 0  1.139464543633635 0.3182162642668528 0  1.214887260891528 0.6824917486258804 0  0.4470960700565646 0.7803305254813445 0  2.056073894593081 1.292965518236122 0  0.7800417460951754 1.309431349558015 0  0.7102942521579887 1.054059105222724 0  2.772203778896419 0.7508393899039921 0  3 0.9375 0  2.4375 1.5 0  0.5625 1.5 0  3 0.5625 0  1.3125 1.5 0  0 0.9375 0  3 1.3125 0  2.8125 1.5 0  3 0.1875 0  1.74009613212014 1.312845810865967 0  0.1858279553328271 1.04932632064409 0  1.582414108002925 0.3243096672004901 0  0.4576542986122824 1.328517530191622 0  1.30595470876181 0 0  0.1616828829631953 1.229471150973137 0  1.600689448835705 0.8342777580615786 0  2.184954406689295 0.9543424310663166 0  2.356848459734244 1.033731425282726 0  2.249618867339344 1.318565528322325 0  2.031012140730151 0.6383085966483963 0  1.264473591492607 0.1926369230867345 0  1.93294708275428 0.2969945700235964 0  1.406271966518558 1.353045118606616 0  0.2855042944080262 1.351202341158466 0  2.163692386827529 0.4469681835123645 0  2.058709899218631 1.05982604745508 0  1.21875 1.361760465218127 0  1.232585115983139 1.060656719142284 0  1.682328919476849 1.161572426192166 0  0.4864612871934715 1.100927295036068 0  2.842393003195402 0.1547034389615206 0  1.901710724058898 1.340659870484523 0  2.578488906869203 1.212378831230944 0  0.346730023619794 1.013455011579226 0  1.758789788261688 0.970834021568154 0  0.9209577900333827 0.984909924281538 0  2.461973640748163 0.2490632223012221 0  2.833434714842781 1.102015011431888 0  1.485476187845101 1.118115752354218 0  0.7869575052851041 0.2127716822913992 0  1.091585464669657 0.4673676525872368 0  0.9308375558444295 1.286291202675726 0  2.609275627299536 0.5207885309723005 0  2.859418780372727 0.4404724026784034 0  0.1368795735450182 0.2913992261536034 0  0.5088670694303536 0.6431238265444117 0  0.9924988599062848 0.7887715626383616 0  0.8674753477047706 0.6821390867986818 0  0.6993572585883594 0.9038049302516018 0  1.53924450853783 0.6818717864694561 0  1.27954362181495 0.818196911265721 0  2.885754890315292 0.65625 0  0.1199579452929171 0.84375 0  0.3101130847613819 0.7251157056441525 0  2.683488575489726 1.10528265125029 0  2.637912450120847 1.350340704724588 0  0.65625 1.387568746661148 0  2.204969505432462 0.7645924845263576 0  2.34230217156612 0.6870332922078795 0  2.458336421316689 0.930056573232228 0  1.547170662421109 0.4687109428674099 0  0.55426355401875 0.2785752421136156 0  1.927690911684502 0.7425770788416013 0  2.650983472818039 0.6639703826486528 0  0.2807744135836687 0.2731407085328489 0  2.697063502273202 0.4130460425434029 0  1.768721210125562 0.4985606178023466 0  1.59375 1.394491048145999 0  1.03125 1.39617417476255 0  2.649124789533757 0.9376608889715211 0  2.899345577629528 0.84375 0  2.448792339301353 1.151333513094988 0  2.455516477512143 0.7671738041202795 0  0.1479512725554237 1.367277900867101 0  1.733007556765436 0.6856365299097277 0  2.865 0 0  0.407900401917371 0.1920322062602331 0  1.482893533441057 0.9020086108979886 0  2.902194538181383 1.21875 0  2.860324471164851 1.360324471164851 0  0.9128790560808855 0.5311054613533476 0  0.7396036279203969 1.183264973390871 0  1.379392725427689 0.4456149894503371 0  0.8305263666170877 0.339868595109382 0  2.352639297837627 1.399880277695907 0  2.15625 1.5 0  2.32277762299786 1.203473773731512 0  1.818471673600783 0.235727380341035 0  1.269129800285538 0.3222823294390822 0  2.329228807632851 0.5297324129610972 0  0.430777275012463 0.469645907614299 0  1.390502090335328 0.1630587681988043 0  1.149408636841162 1.157447166816889 0  1.687853147042319 0.2519031106491252 0  0.3941048876243997 0.8956837842542459 0  1.877835046604575 0.410724628626283 0  1.348230251479045 0.6691802479050837 0  2.336954765206726 0.2613063289913201 0  2.514033953321691 1.393470229958569 0  0 0.46875 0  0.1287800079303892 0.5340043503292357 0  2.441328451749267 0.3721441168812449 0  0.9333932382689634 0.2670516659043625 0  1.13959172768211 0.5827503401695603 0  0.8703665929291606 1.395134656069543 0  1.240468926246127 0.9364063612525604 0  1.433475419570003 1.229904687600933 0  1.020534477629395 0.9101139083191684 0  1.108777781305164 0.7462713331880694 0  0.6468125623079457 0.6038935958199032 0  1.665312060212151 0.428962863572448 0  0.2512528931669099 0.5500044694745148 0  2.66971919386773 0.2450375495263612 0  2.901855502368762 0.2640467328343441 0  2.063534245742155 0.9373123558679215 0  2.031795413587333 0.1972457754676831 0  1.836924180675512 1.065887991891963 0  1.001601941364679 1.16852535211421 0  0.8051266927803291 0.9581030042697194 0  0.7620228346493961 0.7461373576581022 0  3 1.03125 0  2.084817260746984 1.176705869274554 0  2.085981885570153 0.5347538843754811 0  1.496744890324478 0.239335226969819 0  1.894594308711337 0.8570406362709689 0  1.78125 1.5 0  2.109375 1.394928085212741 0  2.71875 1.5 0  0.4943575340553394 1.217544978302146 0  0.5937185858435849 1.055241883498284 0  2.227680725187669 0.3075299344665331 0  0.5158109084499103 0.3891628929402524 0  1.96875 1.5 0  0.6036564600183
[...]
<PointData  Scalars="f_66"> 
<DataArray  type="Float64"  Name="f_66"  format="ascii">1.3752293751080295e+01  -2.7432089455554912e+01  -2.6741124952542716e+01  -2.5885478524175582e+01  -2.4106226860726398e+01  -2.2908367215006258e+01  -2.0291986731899161e+01  -2.0133274960247881e+01  -2.2081607577005499e+01  -2.2807821573117433e+01  -2.4256115090178344e+01  -2.3304064191209534e+01  -2.3939170594900428e+01  -2.1150356234001993e+01  -2.1198847751486074e+01  -2.0775738136045039e+01  -2.0975576276697140e+01  -2.2408921353635460e+01  -2.1938001433738162e+01  -2.1810592789754693e+01  -2.0178136326310558e+01  -2.0234134513035812e+01  -2.0196302576768883e+01  -2.0458345980106330e+01  -2.0266728245522160e+01  -2.1786835611891906e+01  -2.1112414890552735e+01  -1.9878954390977427e+01  -1.8061749577809827e+01  -1.6978115867523073e+01  -1.8946472357453388e+01  -1.9858788072148581e+01  -2.1246526900080191e+01  -2.3151250076794810e+01  -1.9982055539871283e+01  -1.8941067342621302e+01  -1.9828260236092600e+01  -1.9693044859571099e+01  -1.7957697522333486e+01  -1.6813711825280254e+01  -1.4813259632740090e+01  -1.6223715098812214e+01  -1.7928898300494804e+01  -1.9160402396915966e+01  -2.0828874097099387e+01  -2.0726928109620093e+01  -1.8879783665475465e+01  -1.7830224260617300e+01  -1.6616659974816255e+01  -1.5081631441335206e+01  -1.3947918756626708e+01  -1.5767376447028759e+01  -1.7012360635883844e+01  -1.8121054186399594e+01  -1.7931690442595016e+01  -1.7072087000947928e+01  -1.5486142161013461e+01  -1.4129438904640917e+01  -1.2133853270683831e+01  -1.1877803137895620e+01  -1.2567664315347436e+01  -1.3258791692306739e+01  -1.2469441283700503e+01  -1.2554987888571715e+01  -1.4197275932518561e+01  -1.3997599833445507e+01  -1.3163091247254364e+01  -1.1961552487799029e+01  -1.0943155280656626e+01  -9.8528468453577496e+00  -1.0167353286611871e+01  -1.0767434038223916e+01  -1.1317388789032092e+01  -7.0468350974846592e+00  -7.3047599011867073e+00  0.0000000000000000e+00  0.0000000000000000e+00  -8.7268741929749982e+00  0.0000000000000000e+00  1.8477092121079867e+01  -1.8260853240291361e+01  -2.2037422579098919e+01  -2.3668533039115982e+01  1.3325358746613594e+01  1.5389424428304478e+01  -2.2309516406654373e+00  -6.0509178530902197e-01  -2.0403714997414490e+00  3.9227117791453159e+00  -3.7420281530109261e+00  2.8559150929948927e+00  -1.1263735441772464e+01  -7.4303656037105723e+00  1.6669341166020271e+01  -1.1546051334013136e+01  1.3264911038711835e+01  1.2419953809675583e+00  0.0000000000000000e+00  1.5138829892465692e+01  0.0000000000000000e+00  1.3643643682216718e+01  -1.1109342465725886e+01  3.8795877617814791e+00  -8.4467490269917551e+00  6.4497684527974677e+00  6.7003618038784847e+00  7.1985423138411715e+00  -3.7396697837761783e+00  -4.8252713029768621e+00  3.4522287134766003e+00  -3.4484189794160081e+00  -2.4983954186723860e+00  5.0260824886342226e+00  9.1548773374373251e+00  1.0135317970772795e+00  7.7271757625754001e-01  5.0173753220070036e+00  -1.7774294297721703e+01  1.5572978659909866e+01  8.5910155108195347e+00  -1.5030094670943632e+00  5.1498146217676410e-01  -4.4637339559542282e+00  -8.4588200851034827e+00  1.8329293964646968e+01  -6.1097688121893343e+00  -8.0877385010753251e+00  -1.4600609678008521e+01  -1.2232713203806849e+01  -1.4812800551196467e+01  1.1846167845515092e+01  -1.6945961247783636e+01  -7.0046068638415786e+00  1.7065473245771510e+00  7.4985460297869047e+00  -5.2780921130747700e+00  -1.3598255268735148e+01  -1.6133744478133742e+01  -1.1669149122524964e+01  6.3375346905319994e+00  -1.3262339964399336e+01  -8.4202475311665772e+00  -5.7647231123519935e+00  1.6036125038351422e+01  2.5008424658917234e+00  2.3613041027535462e+00  -1.0548127795863811e+01  -1.5751816756981766e+01  -6.4418780965385452e+00  -6.5010784304497413e+00  9.9459874295060402e+00  7.8043219548426279e+00  1.2394368124984594e+00  -6.1469711647000036e-01  0.0000000000000000e+00  1.7870792660570686e+01  1.5343429993022941e+01  0.0000000000000000e+00  1.4884387313350608e+01  -3.7601228022013764e+00  0.0000000000000000e+00  9.2345094694909893e+00  0.0000000000000000e+00  1.0171154481687200e+01  -3.8314455293670624e-01  -1.3846774059946908e+01  7.5144891436627370e+00  -1.9802602881615481e+01  4.2177862057862381e+00  -1.5364452946326315e+00  2.4282813934653320e+00  4.2292634095072659e+00  1.0397420344811630e+01  -4.4390550465110961e+00  -1.7986096980811752e+01  -1.2587777201506137e+01  1.0542866786211684e+01  7.8881093429101101e+00  -8.0165401388833253e+00  4.6409440353057301e+00  1.0719709428376056e+01  2.8955814257991088e+00  6.3927449856716043e+00  1.7040465426458475e+00  -5.9535112042618268e+00  1.1145180507269043e+01  6.7071774126083206e+00  -8.0491663563276850e-01  2.0618435022921395e+00  1.0813465878189832e-01  -9.7352618701571689e+00  2.2153133995919410e+00  4.9063004110680408e+00  -1.9376722565840073e+01  -1.2221670683560784e+01  7.7329131432180160e+00  -3.2648435405497453e+00  -2.2704482569397824e+00  -1.9578884870059209e+01  -9.8453809793794065e+00  -4.5289219654875552e+00  -7.6541116359065988e+00  -2.5702769959908376e+00  -5.3692268053201930e+00  -2.8919496153531679e+00  -3.0045673747614521e-01  -5.8679537881579549e+00  -8.3164251627574952e+00  4.2380049545223626e+00  8.8589252407805272e+00  9.8344718180488861e+00  -1.3316455896109423e+00  -2.1129280492947000e+00  1.9630344489239671e+00  -1.0456191629509787e+01  -1.9003689662533631e+01  -2.6244271425147692e+00  -1.1803595959320485e+00  -1.9773340768042985e+01  -4.6233203355759240e+00  -8.8067587194865435e+00  1.2266518163659702e+01  1.1158280026510811e+01  2.3694218868169035e+00  8.2612384340750034e-01  5.9824102715100809e+00  -7.4946972497432340e-01  7.9051216467129306e+00  -4.5879523427722120e+00  -6.4234704039589214e+00  -2.1140418965731882e+01  -3.0901223239024517e-01  2.7968294047083337e+00  4.3062697173252653e+00  -1.1240937085944072e+01  4.5371912318524075e+00  -1.1604974306295372e+01  -1.6282780858673931e+01  1.2451935140075578e+01  1.7553004819296106e+01  7.6576324657701695e+00  -1.4604755260541305e+01  -1.4892831691044524e+01  -5.1101294736497360e+00  -1.4400482952141493e+01  -1.8150141983065357e+01  4.9603642020602052e+00  -1.4828184651685980e+01  -3.6800003254278875e+00  -1.0374022157392167e+01  -6.3163787687795532e+00  -1.0546637773600610e+01  1.0874465884850096e+01  -1.5974679101903627e+01  -1.3802186581744275e+01  -7.6158901811727198e+00  -1.7640693278129437e+01  -9.1884772087853381e+00  1.0976575878216579e+01  -1.2778060449381604e-01  7.4700485491018727e+00  -1.4443221188444870e+00  -5.2744633213992014e+00  -1.0336698365316417e+01  -1.0910199448973337e+01  -1.3018612750766902e+01  -7.3599082479495443e+00  -3.7511078027424771e+00  2.0008731963022939e+00  -1.4106116595415561e+01  4.4407505892828434e+00  4.9430073372664864e+00  -9.8405806726568967e-01  -6.3895298322342731e+00  0.0000000000000000e+00  7.2268460901241962e+00  -6.4784061842965608e+00  -1.6070984641297375e+01  -1.9549957537593265e-01  1.8842539191553101e+01  1.3326286797800192e+01  1.5498702283901196e+01  4.6631209665581626e+00  8.8634854989948564e-01  -1.0460156733951459e+01  -1.6298811586807076e+01  1.5981613302037884e+01  -4.4249999191512375e+00  -1.3829370541605703e+01  -1.9786599151816393e+01  -5.3006416083247974e+00  -7.4526448806598244e+00  6.5513026538704755e-01  7.4100345746432970e+00  1.5278663522333482e+00  5.0190882772276844e+00  4.0672133534453314e+00  -1.6743755891442165e+00  -1.6047768634980088e+01  0.0000000000000000e+00  -1.6681721524648875e+01  -1.3469055639072661e+01  -1.1877229432965812e+00  -1.2130862339405639e+00  -1.2650611234369631e+01  8.7997238979842649e+00  -9.1607739830745250e-01  -1.2559045003992400e+00  -2.8792357615695523e+00  2.3344201885937905e+00  7.5414933609670172e+00  -3.2082886810307603e+00  1.2394126150387015e+01  9.1147346604974799e-01  -1.7112571273046562e+01  -1.0633255145355340e+01  -1.3491699778096827e+01  -8.4538449286848376e+00  -7.9497919716268797e+00  -8.6743218554464878e+00  -1.7970095618538218e-01  -7.8073410821346343e+00  -7.9667489928636508e+00  9.6790481010848914e+00  8.0533980014937079e+00  -8.9979058338925579e+00  3.9985606044079085e+00  -1.1122187473461327e+01  2.4033124081096626e+00  -1.8104256418488067e+01  1.2747402053251314e+01  0.0000000000000000e+00  -3.4669555213974008e+00  6.2029588898206010e+00  6.3752480090162100e+00  1.6065919805408400e+00  3.7081194101699846e+00  2.2362827159986831e+00  -2.2564426035061875e+00  2.5919940692539187e+00  1.3232096835346146e+01  -3.8504319450292610e+00  1.4095615078818469e+00  1.1975440607454106e+01  9.3413878245410071e+00  -1.3489887825567962e+01  -1.5141119008573868e+01  0.0000000000000000e+00  5.3013900608514524e+00  -2.0461349991316695e+01  -4.3668892574066085e+00  -7.3212527953498974e+00  -8.9265696351516741e+00  -7.8039831701940470e+00  -2.3140605939149053e+00  9.2584618842505400e+00  1.2534791726490408e+01  9.9407593542680885e+00  -6.3859217423531041e+00  7.1242309926972434e+00  1.0671494627448494e+01  5.7386088054817241e+00  8.4942451928004346e+00  1.0927052153289791e+01  4.4235235583999550e+00  -5.6528926729244295e+00  1.6787519149758525e+00  7.9018103087651703e-01  2.5615089066770933e+00  1.1414500526452422e+01  -6.7604020293087608e+00  9.2822435169856714e+00  5.3539005441140874e+00  6.4417299335129319e-01  -1.2233805314740760e+01  -1.5015742774083419e+01  -5.9434309049087712e+00  3.1152082902096225e+00  -1.0965650538540450e+01  3.6432869534062933e+00  4.6511205650995509e+00  -1.5459533200771975e+00  -9.7533996693000918e-02  3.4209287847099767e-01  1.1844908246650364e+01  9.0891451443258209e+00  1.6747685247641400e+01  0.0000000000000000e+00  0.0000000000000000e+00  1.4113397776007126e+01  1.4612376878302705e+01  -6.2838688831735352e+00  0.0000000000000000e+00  -2.0487091048513214e+01  0.0000000000000000e+00  1.7529101122303217e+01  1.4971463144374898e+01  1.5424930879282002e+01  1.5782458730786026e+01  1.3705909562571705e+01  1.5350831350992401e+01  -1.6791227311642260e+01  6.8138351630372060e+00  6.4626558030218795e-01  -4.2747599425555762e+00  -6.1301071146984425e+00  -1.6090804232805962e+01  -1.5669333722609819e+01  -1.0621364257999495e+01  -9.1797383161710999e-01  6.8080595698976232e-01  -2.3237472654609164e+00  -1.9124866472729131e+01  -2.0258628833540069e+01  -2.3063085472516622e+00  3.6692387155747084e+00  5.7991042587607726e+00  4.7381312388618211e+00  -4.1006569455401927e+00  -2.8723195034372662e+00  1.2985117098192177e+01  9.5450561153714197e+00  1.8756882621457736e+00  -4.6208643605074169e+00  -1.2023484653891513e+01  -1.4414787375029242e+01  -9.9503534549321024e+00  -6.2787086484528070e+00  -1.2963128352790903e+01  -2.5101848860949012e+00  -1.1715505380601281e+01  9.5050979875414185e+00  -4.9012478417535563e+00  -1.3770521661940521e+01  -1.2640893208471404e+01  -1.6289651175569585e+01  1.2930161652226295e+00  -1.4917431851525546e+01  1.9396305638862815e-01  5.8412797697039522e+00  -2.7760535390471297e+00  3.1124074750414205e-01  1.3490229253119372e+01  -1.8426238653295218e+01  1.3831788583811552e+01  -8.3690588387591696e+00  -2.1120296900878209e+01  1.0203089439517619e+01  -6.9608464634904377e-01  -1.1308496754415556e+01  2.6634612659710770e+00  -2.0734115024260575e+01  -5.9475583576547875e+00  5.5566321910535503e+00  1.1116236861225756e+01  2.9035137727156699e+00  1.5292725754281533e+00  5.3858985908297621e+00  6.9877232337954309e+00  -2.7538795132916865e+00  -1.0639942489669101e+01  -2.2418242889465225e+00  3.5075256224618854e+00  1.6138646522905873e+00  6.3640795497124687e+00  8.8651129179345638e+00  -1.9194925028496581e+01  -7.1648562571639918e+00  2.1196140826132783e+00  6.2841877889041200e+00  8.1882368753468011e+00  -1.2741653544815509e+01  -9.8825202492541226e+00  -7.7300622256922376e+00  -2.2126695038085952e+01  7.0709968062087496e+00  -8.9587428380568035e+00  -6.7801224312864354e+00  -9.9013713856412906e+00  -3.4565399507568926e+00  -3.2662156949238148e+00  -4.3733748806397319e+00  3.5261905520889441e+00  -3.5851240503259674e+00  -5.2985856339157937e+00  2.9402822776848141e+00  -6.4688001300911964e+00  -4.9860676158296675e+00  6.6781322575258373e-01  5.7905868817900901e+00  6.0721963533888312e-01  4.4348806687355173e+00  9.0694973533722330e+00  -2.0899966867225583e+01  -6.8994950934111579e+00  3.5827369217078076e+00  8.4830296464239989e+00  -1.2410908516452446e+01  1.1476281963651882e+01  1.0350084618988905e+01  1.1621262822742343e+01  -5.6225808639348278e+00  1.1815363159134209e+01  -1.6423908742802542e+01  -1.9082919811416044e+01  -8.8580213088371504e+00  -4.6224409150680188e+00  -2.0259436579479129e+01  -2.8493800086476653e+00  2.1008876459090322e+00  -2.2084366275293132e+00  1.0875096456845190e+01  3.1987041252817603e+00  4.8116585074028029e+00  7.8906007087850414e+00  5.7269208222240549e+00  -6.6202621388379912e-01  -5.8519985282997034e-01  -3.7205393337742683e+00  -2.4950020372903543e+00  -3.6893094884764288e+00  -9.9276011267504183e-01  -1.8800841970199649e+01  3.2006058522448741e+00  -2.0044549561067864e+01  2.8520724232538319e-01  -7.9205914503871790e+00  1.0087624567527239e+01  -1.3905508823522354e+01  -1.1879117781480490e+01  -1.3400660925150657e+01  6.8432751146269171e+00  3.9575089857523440e+00  3.2864970856066056e+00  -4.8839505857371481e+00  7.0185008742436139e+00  -4.5197275151596878e+00  -1.9256476762415925e+01  -2.1187035374309058e+01  -1.9630433433555492e+01  -2.2759059937771323e+01  -1.7978306149068107e+01  -1.6328241702794385e-02  8.2215908410754182e+00  -1.0775885623003505e+01  -1.2530179307705414e+00  -1.0901503910736057e+01  -1.8308390940484930e+01  -5.5360591291954329e+00  -1.4217795135569347e+00  -6.8025167638553341e-01  2.7509797815375543e+00  -5.1467757130515013e+00  3.3582227954150583e+00  7.8119292039999753e+00  1.3569160319819398e+01  -1.8635593284265170e+01  6.9758353130588429e+00  8.2712454031237623e+00  5.8023056934081003e+00  -4.8145320526052986e+00  -9.1696926199125368e+00  -1.4270507128745015e+01  -7.2652340764532246e+00  -1.7887875443835477e+00  -3.7513875912601020e+00  -6.5969514294473608e-01  -1.0841064025519989e+00  -1.1339725289520780e+01  -1.0646121651638204e+01  -1.4765927634638739e+01  -2.9978886297514413e+00  -2.4046934549637058e+00  4.8238968648245972e+00  -9.4032400942085683e+00  -1.2531378930207364e+01  2.7258167661622652e+00  -6.9030747133572525e+00  -1.8860104844220754e+01  2.6612687698435571e+00  1.5097599637730093e+00  1.4879986667789444e+00  8.8671518857334881e+00  -8.1359557440662087e+00  -9.7047676292045146e+00  4.9942167847530863e+00  -6.4789567003226729e+00  -3.5268608446619836e+00  -4.2584746740963286e-01  1.1024240556054295e+01  2.1086783330019421e-01  -6.4717783149702059e+00  -1.2306049394268745e+01  -1.8345594053450494e+01  5.5377417767725241e+00  -1.4897774493229023e+00  1.2824682220029583e+01  -4.4880132482741864e-01  -7.6183465512317106e-01  5.6123437284907807e+00  3.1421718779761902e+00  3.6998655164872591e+00  -6.8195249947287406e+00  2.1863323677083972e+00  -2.0605701154991582e+01  1.2763429683055982e+01  1.1671573807743252e+01  8.8962235905479385e+00  1.0145174713742406e+00  -1.6555977788425135e+01  -9.0453949922829757e+00  -1.2350579094307891e+01  -9.1943454924354668e+00  -1.7766056362796331e+01  -6.6559805064980564e+00  -9.6915143905553407e+00  1.0699683646723228e+00  6.4349155060374672e+00  7.5708081548771604e+00  -6.6079570230093054e+00  -7.4909459635098461e+00  -1.0609528226704148e+01  -1.4513379737122404e+01  -9.1342762707944143e+00  -1.3094622450818122e+01  -1.6531205420388677e+01  9.7244488185902291e+00  -8.3241846752786888e+00  -1.9024739820143285e+01  -6.4302721433378194e+00  -9.9690685397079850e+00  -1.3377931007091576e+01  -2.1735137692984416e+00  -1.1685954892006682e+01  -1.3530566191923125e+01  1.4676018334621952e+01  -1.7442794630367175e+01  -1.4678483555244767e+01  -1.6257017751738587e+01  1.0351931520494626e+01  1.1657533533763702e+00  1.4701322911941480e+01  -8.4893126424550829e+00  1.3209768305215555e+01  -1.3718406121412534e+00  -6.2260252158955094e+00  -2.2907024302180972e+00  -1.4724383450244339e+01  -7.3743484296328985e+00  -3.0062563159594853e+00  -4.0890333123496596e+00  -5.0732587844742199e+00  -1.4157059845693332e-01  1.2980719668333641e+01  -9.6875646632234815e+00  8.5751627773409762e+00  -6.8811498314282806e+00  -2.6934067563089834e+00  8.7107961967115521e+00  -9.9608186735535895e+00  6.5976510575522473e+00  8.9069547859584937e+00  5.2515745032536989e+00  8.0972186293967008e-01  4.5576982128334169e+00  -5.3866872162302109e+00  -1.0765600764875421e+01  2.8977968984483429e+00  -4.6515482371795454e+00  -1.7487052002450138e+01  -2.0911153656067658e+01  7.0337862001162241e+00  -2.0330221671203031e+01  -9.8255518949710456e+00  -7.9576555965529561e-01  1.0112373104338974e+00  -1.8406193915652722e+00  -7.8095698850165274e+00  -1.2212094196579775e+01  -2.2259193792979037e+01  -1.7062677114235715e+01  -1.3863514280481219e+01  -1.2759664322226756e+01  -1.6052951809578495e+01  -6.8158702277877987e+00  5.5385130879720856e-01  -2.0340416015158507e+00  -3.2425886173673955e+00  6.0959305562511563e+00  -1.8229811206507318e+01  -1.2014466282027488e+01  -2.3712149484654281e+00  4.7186444173976456e+00  -1.6684276462593321e+01  -2.2181035268374700e+01  -6.7599903524025651e+00  4.9784957091488419e-01  -1.5583935404270902e+01  -1.3187661581563812e+00  -1.0173686901274420e+01  -5.7073956938853234e+00  -9.0755548125815888e-01  -1.2915219674553843e+01  7.4407438421901801e+00  -1.2335535084633403e+01  -6.1234028891758880e+00  -5.7735876593972557e-02  -4.1359864862107791e+00  9.6763360858089911e+00  1.4858295570457290e+01  1.4646333919177973e+01  8.1586616851434268e+00  -8.5314158176278685e+00  -2.1172773409922067e-02  1.1043954406713214e+01  4.7830659076595046e+00  6.3010297067855330e+00  -8.1087038825782400e+00  -1.5378113902351327e+01  -1.2159435431798025e+01  -1.4793637265867885e+01  -3.9590467098259792e+00  1.3140942630687700e+01  1.1194950035837781e+01  1.8429919598506551e+01  2.0970675515667772e+00  9.7520734843235122e+00  1.3595055173359341e+01  -1.1704237436142956e+01  1.7024937129252289e+00  -1.5548556869783832e+01  1.0891830994201252e+01  -1.6837490361367833e+00  -1.8930791089563812e+01  -1.7799527773722225e+01  6.6986313420373174e+00  -8.6122592703517800e+00  7.6767930278654917e-01  4.3166209846877013e-01  1.4693397418908786e+01  9.8803879220924120e+00  -1.4189117828565388e+01  -1.1750070220589022e+01  -9.1352305729723682e+00  -1.8013706001350924e-01  -3.9666326410592125e+00  3.9588170102677762e+00  -1.5340020858493812e+01  -1.4389756203711814e+01  4.2091800698126365e+00  3.8835038186827591e+00  -1.8116715620757692e+01  -1.4328501559181586e+01  6.7193704857140881e+00  -5.2444151462722441e+00  -2.0331489331891399e+00  2.6185077211434193e+00  -1.9619434755878278e+00  -6.3917881904418317e-01  -9.0217875151355447e+00  -1.4261565227869381e+01  -1.9336768425493140e+01  4.1271834975212291e+00  8.9776422754001377e+00  -4.4254214853554927e+00  -2.0176121137905505e+00  1.0541503100287514e+01  -2.2331358688988832e+01  -9.6733029373660777e+00  7.4066739405853275e+00  0.0000000000000000e+00  2.5823529486168444e+00  -2.9533006194378029e+00  -1.0798177759889761e+01  -6.8550976763435250e+00  -7.6293118822114678e+00  4.1124343297923858e+00  -1.0931794994999541e+01  -5.9761249447432867e+00  -1.6625443335211493e+01  -9.0803570235914166e-01  -3.0061263971174577e+00  1.4095668582085294e+01  1.2678233535917041e+00  -4.2435245631734544e+00  -4.4104669299189707e+00  -9.1775848993533220e+00  5.1513115239758243e+00  3.3410286556559261e+00  9.7892549719713546e+00  -1.4948529995967972e+01  2.8068315641950647e+00  -1.3676970787434056e+01  -3.7345647420628941e-01  7.7490735715853685e+00  -1.5951783569087320e+01  -5.7395635055331562e+00  -3.7727802562227541e+00  -5.3399133062312778e+00  1.2898784348204744e+00  -1.7947184658270221e+01  -2.6387155464234571e+00  -1.2372458527670837e+01  -4.9639714288876480e+00  -6.4316631234170503e+00  1.4520983678646148e+01  6.0508060128023482e+00  -1.4781469674635952e+01  -6.1025720128585448e+00  5.607