<?xml version="1.0"?>
<VTKFile type="UnstructuredGrid"  version="0.1"  >
<UnstructuredGrid>
<Piece  NumberOfPoints="4835" NumberOfCells="9296">
<Points>
<DataArray  type="Float64"  NumberOfComponents="3"  format="ascii">0 1.5 0  -0 0.1307014797437256 0  0.01134725726173103 0.1483581566929452 0  0.04283342385313163 0.181379897845022 0  0.08000000000000007 0.2078460969082653 0  0.1215036888038188 0.2268001964915204 0  0.1658444388144116 0.2375571460514239 0  0.2114196597976982 0.2397281614039219 0  0.2565821445222626 0.23323477639765 0  0.2996996031204527 0.2183116788850844 0  0.3392136582970876 0.1954982284920806 0  0.3736961691452169 0.1656189627557069 0  0.4019008478794835 0.1297537961893434 0  0.4059948616314525 0.1218125174167552 0  0.4254856317806581 0.1498156710261111 0  0.4592156240140376 0.1818784194956707 0  0.498709345141744 0.2064950441012706 0  0.5423499175804942 0.222657737339227 0  0.588350691167096 0.2297047966493422 0  0.6348283888260526 0.2273477145954656 0  0.6798802081543086 0.2156829903938285 0  0.7216617223752013 0.1951881792237927 0  0.7584623913874079 0.1667023410626976 0  0.7879811633353602 0.1323170874919288 0  0.8152477706948351 0.1684239109116393 0  0.849341340905186 0.1995043068200599 0  0.8885654110558655 0.2237908228387656 0  0.9315842524819793 0.2404564107932048 0  0.9769329101341745 0.2489335440737586 0  1.023067089865825 0.2489335440737586 0  1.068415747518021 0.2404564107932048 0  1.111434588944135 0.2237908228387656 0  1.150658659094814 0.1995043068200599 0  1.184752229305165 0.1684239109116393 0  1.212554283932403 0.1316080407193389 0  1.233118057351089 0.09031041654678823 0  1.245743274920975 0.04593737945414259 0  1.25 0 0  1.36108673858246 0 0  1.36108673858246 0.02281345039300389 0  1.369721686332521 0.06761581364194322 0  1.386679492322819 0.1099743652145785 0  1.411347257261731 0.1483581566929452 0  1.442833423853132 0.181379897845022 0  1.48 0.2078460969082653 0  1.521503688803819 0.2268001964915204 0  1.565844438814412 0.2375571460514239 0  1.611419659797698 0.2397281614039219 0  1.656582144522263 0.23323477639765 0  1.699699603120453 0.2183116788850844 0  1.739213658297088 0.1954982284920806 0  1.765497292517293 0.1727233297951148 0  1.79 0.1905255888325765 0  1.832016261237511 0.2092324335849338 0  1.877003738081116 0.2187948169810202 0  1.922996261918884 0.2187948169810201 0  1.967983738762488 0.2092324335849338 0  2.01 0.1905255888325765 0  2.047208733398949 0.1634918616050267 0  2.077983738762488 0.1293127555043441 0  2.087980221556173 0.1119983394086949 0  2.111347257261731 0.1483581566929452 0  2.142833423853131 0.181379897845022 0  2.18 0.2078460969082653 0  2.221503688803819 0.2268001964915204 0  2.265844438814411 0.2375571460514239 0  2.311419659797698 0.2397281614039219 0  2.356582144522263 0.23323477639765 0  2.399699603120453 0.2183116788850844 0  2.439213658297088 0.1954982284920806 0  2.457172785224357 0.179936556425434 0  2.459215624014038 0.1818784194956707 0  2.498709345141744 0.2064950441012706 0  2.542349917580494 0.222657737339227 0  2.588350691167096 0.2297047966493422 0  2.634828388826053 0.2273477145954656 0  2.679880208154309 0.2156829903938285 0  2.721661722375202 0.1951881792237927 0  2.758462391387408 0.1667023410626976 0  2.788775591477674 0.1313916894718022 0  2.811360296672653 0.09070184667606328 0  2.825291886488074 0.04629865962039181 0  2.83 0 0  3 0 0  3 1.5 0  0 0.8023345134541607 0  0.4157402467060553 0.1358140942214332 0  3 0.75 0  1.5 1.5 0  0 0.4665179965989431 0  3 0.375 0  0 0.2986097381713344 0  0 0.21465560895753 0  0 0.1726785443506278 0  0 0.1516900120471767 0  2.25 1.5 0  0.75 1.5 0  1.169989811679434 0.9093651732355621 0  1.875 0.9142758100523694 0  0.5779365036100435 0.9330077223331824 0  2.43246936225428 0.7976868957014953 0  3 1.125 0  2.625 1.5 0  0.375 1.5 0  0 1.15116725672708 0  1.449253057879235 0.6213873587688492 0  0.7697361971202799 0.5943793911944208 0  0.3630076616442724 0.6080350564914153 0  2.069570984533324 0.5812833454367354 0  1.875 1.5 0  1.125 1.5 0  2.4375 1.173854331507092 0  0.8831005780031504 1.150004411874495 0  1.52207987625039 0.9714054497350916 0  2.0625 1.207137905026185 0  1.107793318688589 0.5766433232347881 0  1.3125 1.2274095306559 0  2.729985961523573 0.9375 0  2.711750443384031 0.5625 0  1.6875 1.243073622519403 0  1.760894209596057 0.6242614373612321 0  0.2643049832376852 0.9767508850906206 0  0.4566194854768236 1.209399638766609 0  2.728217267602858 1.228217267602858 0  2.374499195658668 0.518153287180279 0  2.169650674143702 0.9320836008992801 0  0.8550719231757007 0.8663457099410541 0  1.303567858855371 0.4078893824383345 0  0.2133194436665546 1.297827371069245 0  0.5308017499037517 0.4517023193912283 0  1.083077097725883 1.270382833575872 0  0.6830238102386342 1.274223132985906 0  2.250983943328481 0.6895458766515071 0  1.81089184968521 0.4192208869708923 0  1.679274712803154 0.8238291020339636 0  1.5785148524717 0.4510287526682343 0  0 0.6344262550265519 0  0.2138866804674432 0.765685327335986 0  0.5683532856219899 0.6602211278972628 0  0.9375 1.5 0  0.93201471049342 0.4568525359126817 0  1.262687644113192 0.7198627504483751 0  0.4154000952342595 0.8069446327163143 0  0.2139559556345817 0.4540330649264536 0  2.06977986811652 0.3813318272583126 0  0.7200651071201811 0.4061566188086219 0  1.932157822851692 0.7243325602448901 0  0.9441947922338874 0.689010158618046 0  3 1.3125 0  2.8125 1.5 0  0.5625 1.5 0  1.865575888969794 1.126762336039809 0  1.691368628814911 1.054521333692312 0  2.243682835689564 1.11932177110543 0  2.294933652681559 1.30886281903233 0  2.4375 1.5 0  2.385653526545621 0.9864303388879195 0  2.560603055863368 1.320052196970997 0  2.605098352881707 1.08210421072607 0  2.797310903081369 0.7462827406561878 0  1.497248537655819 1.30111187331848 0  1.6875 1.5 0  3 0.5625 0  3 0.9375 0  1.3125 1.5 0  2.0625 1.5 0  3 0.1875 0  0.1875 1.5 0  0.9978323986844071 0.9954535003819682 0  0.7455388243606953 1.020382929522352 0  1.904625246064701 1.312514164033404 0  1.15622562020362 1.097022204090454 0  1.332774827327096 1.015638362851981 0  2.617489052932561 0.7904306825848915 0  2.798834931624827 0.3810601956207291 0  2.518702939674024 0.6340258449062608 0  1.42862153170688 0.8082655083169574 0  2.016051725629557 1.02698392558818 0  2.557580898838836 0.4303899543284488 0  0.9143579924460792 1.324371521638632 0  0.6907201107072946 0.792483910827579 0  0 1.32558362836354 0  0 0.9767508850906206 0  0.6046140448732628 1.120294499938289 0  1.129353874055204 0.4037183319394277 0  2.240578803971554 0.4086758810341738 0  1.544887400155686 1.138911442832316 0  2.828734594747712 1.083464790593587 0  0.401358428169992 0.3487630281226344 0  0.1737226743516005 1.126953194380642 0  1.219293394173851 1.36370476532795 0  2.095593203128485 0.7438044944874065 0  1.099947866649755 0.7404984974094087 0  0.4225987016856009 0.9654760294046846 0  1.265404984472296 0.5615537191035901 0  1.908099381276504 0.55154028811489 0  1.605233217264331 0.6055204891939014 0  0.2070403235706232 0.6098576665994301 0  0.46875 1.369568887475175 0  2.529999076220762 0.9220559311443081 0  0.3296306516835505 1.118561581461605 0  2.136891098712708 1.353568952513092 0  0.1250262355603041 0.8895426992723907 0  2.286468869522623 0.8363516131379349 0  2.03024950667879 0.8782110935537075 0  2.71875 1.380113023166798 0  2.851157149000174 1.312122703709591 0  2.855875221692015 0.6072101925796368 0  1.766081959310164 1.371536811259701 0  2.417227117459742 0.3724437385102629 0  1.365276810157265 1.363519047380362 0  1.451310499971155 0.3640091006357036 0  2.211012611580202 0.5503989260541815 0  1.306789156675977 0.2570819477057019 0  2.872418607762505 0.256220469598872 0  2.896902016958361 0.84375 0  0.6487095286926469 0.5256523827174592 0  1.021477811485347 1.13286821063065 0  1.622350554793597 1.371881362989231 0  1.297557547403682 0.854343314165958 0  0.5529398034156436 0.7974238691464364 0  1.000783388185185 0.848708117631217 0  0.8152141294141361 0.735251676415229 0  2.383386472338196 0.654760318649699 0  1.031024064601143 1.39833771698851 0  1.812756223744312 0.7919737740986065 0  2.902150447032281 0.46875 0  1.558478314279628 0.7430881247578319 0  2.428095049619715 1.306700780290589 0  0.3309906154406318 1.369459454266083 0  0.117457385934373 0.361895434578648 0  0.4016309285334721 0.4812757168525422 0  1.933925005895449 0.3564723397117748 0  0.7479761182598068 1.155601287121883 0  0.09711831342126455 1.23837544254531 0  1.384025258268523 0.5094422387329146 0  2.188092881729461 1.235445092789212 0  0.116614462422195 1.388212202394539 0  0.5993432477835932 1.374610260003488 0  0.8731519049868882 1.022757560732678 0  0.1109021857268646 0.5275252102504697 0  1.703820060431276 0.5017282682884084 0  0.1118224159219883 0.6921053365242938 0  0.3267069786561488 1.244030051070764 0  2.878127312164905 0.9679608000003684 0  1.408346090782441 1.129729637108486 0  0.8047358880839842 0.3153623688883521 0  2.6405066654848 0.6664933064830099 0  0.4805702216488833 1.081724858267193 0  2.668084598222495 0.3562155878484895 0  2.138121375887776 1.052804865904559 0  1.96875 1.5 0  0.4891907154726056 0.5668366043293971 0  0.1473863332166031 1.0086557402922 0  2.558860649578938 1.196592162044302 0  1.717555244640741 0.3396535732296396 0  0.84375 1.5 0  0.7839942032523698 1.367093097528149 0  3 1.40625 0  2.484124862262918 1.060073596740424 0  3 1.21875 0  2.34375 1.5 0  0.8196209764267471 1.251369088398821 0  2.023202270335131 1.319214170177879 0  0.5721208504581607 1.233781127425821 0  1.984735816620384 0.462442873488178 0  0.6955333931194808 0.9118686683832042 0  1.19123464962554 1.213906677421382 0  0.8929803638185398 0.5752987850534633 0  1.566736823664244 0.8614646887466211 0  1.808684073906441 1.017786844668201 0  1.719105195888173 0.9374041347540488 0  1.671476674178274 0.70476362875428 0  1.218260709491531 0.330629071498573 0  2.839021519587611 1.19788439058923 0  0.5170070740021471 0.3361933937254621 0  1.393527188254162 0.91788143976
[...]
<PointData  Vectors="f_60"> 
<DataArray  type="Float64"  Name="f_60"  NumberOfComponents="3" format="ascii">-1.4315759870600766e-04 -1.6645868201014825e-04 0.0000000000000000e+00  -2.9031761721286961e-05 -1.7410184484775336e-06 0.0000000000000000e+00  5.1925301554704298e-05 -2.4835194114048083e-06 0.0000000000000000e+00  3.5651669894411371e-04 1.2769634171140551e-04 0.0000000000000000e+00  2.1781378457566569e-04 6.5879214315703717e-04 0.0000000000000000e+00  -4.2182910443041769e-04 8.4059987450242439e-04 0.0000000000000000e+00  -3.0087334135245076e-04 8.6962918898487757e-04 0.0000000000000000e+00  6.1725856980612468e-04 9.8306802414992915e-04 0.0000000000000000e+00  -4.9271463623866267e-04 5.5655004211463248e-04 0.0000000000000000e+00  8.4071878023809577e-04 4.8315875859743972e-04 0.0000000000000000e+00  1.4533558642478866e-04 1.0618006811420799e-03 0.0000000000000000e+00  -4.2855419934031009e-04 1.1093190808025111e-03 0.0000000000000000e+00  -2.9108083896907236e-06 1.7973209091742305e-04 0.0000000000000000e+00  -4.0112505268168876e-05 8.5181150433490707e-05 0.0000000000000000e+00  1.5651063211478787e-04 1.9683850296542746e-04 0.0000000000000000e+00  -7.7913223303293483e-05 3.8558274009878974e-04 0.0000000000000000e+00  2.1218988801579029e-04 9.2080809693983697e-04 0.0000000000000000e+00  6.1016619155853985e-04 1.1341873444258158e-03 0.0000000000000000e+00  -3.0036610600829068e-04 5.7126172741938069e-04 0.0000000000000000e+00  6.6624669807385534e-04 3.9376884783075500e-04 0.0000000000000000e+00  -3.9908568026316799e-04 9.9863854700321295e-04 0.0000000000000000e+00  -2.9242147940692471e-04 7.7169862864053483e-04 0.0000000000000000e+00  -1.4702277011024057e-04 2.9780153033951004e-04 0.0000000000000000e+00  -7.0192498232531276e-05 3.6129266103994443e-05 0.0000000000000000e+00  1.5913992177955108e-04 5.2639916202398297e-04 0.0000000000000000e+00  7.9446571254387769e-04 1.3348344064668194e-03 0.0000000000000000e+00  -6.2179736592414168e-04 6.6705431166128677e-04 0.0000000000000000e+00  -3.4456697527238367e-04 3.3506346770840356e-04 0.0000000000000000e+00  -1.2514737955135875e-04 1.1189648185786325e-03 0.0000000000000000e+00  -2.3946128338038139e-04 8.9122334293611854e-04 0.0000000000000000e+00  3.7550046870687937e-04 8.2633936416876019e-04 0.0000000000000000e+00  -7.3481499730496938e-04 9.7424727965629196e-04 0.0000000000000000e+00  5.7223097420877438e-04 -9.5377103774754420e-05 0.0000000000000000e+00  7.1067704431929210e-04 -2.2397594117032075e-04 0.0000000000000000e+00  -1.5381440550777675e-04 6.8477772869736104e-04 0.0000000000000000e+00  -7.8364533971232459e-04 1.3965579094138347e-03 0.0000000000000000e+00  8.0541933887942171e-05 7.5659987586733108e-04 0.0000000000000000e+00  3.4121456526615940e-04 3.9099759999477952e-04 0.0000000000000000e+00  1.8413604952848963e-04 1.2444385268899077e-04 0.0000000000000000e+00  2.5050253062836340e-04 2.8821513320033100e-04 0.0000000000000000e+00  2.3667207418942021e-04 7.0314955602364599e-04 0.0000000000000000e+00  -2.9282484605604355e-05 4.8187216798099120e-04 0.0000000000000000e+00  -1.3241719544227615e-04 6.2749880883203226e-04 0.0000000000000000e+00  3.2468680504437207e-04 9.9641934552148850e-04 0.0000000000000000e+00  -3.6768109360872512e-04 6.5715412673221128e-04 0.0000000000000000e+00  -2.5587244668635260e-04 4.3891637402129150e-04 0.0000000000000000e+00  2.7780294391643027e-04 5.4282128717367034e-04 0.0000000000000000e+00  -7.6517146246312491e-04 1.0440765218161633e-03 0.0000000000000000e+00  7.3396869490166485e-04 8.2771836077049894e-04 0.0000000000000000e+00  2.6513161894835822e-04 8.7921093668877738e-04 0.0000000000000000e+00  -6.2604498661373220e-04 2.6666120542729422e-04 0.0000000000000000e+00  -4.5276330627781877e-04 1.2935358175765951e-04 0.0000000000000000e+00  -2.8936874391964650e-04 1.0850734544316693e-04 0.0000000000000000e+00  2.3996230311253150e-04 5.9441994750837265e-04 0.0000000000000000e+00  2.7655980104979600e-04 8.1301158897329709e-04 0.0000000000000000e+00  1.4845531410234206e-04 8.8694362308227366e-04 0.0000000000000000e+00  6.4866507426042104e-04 6.2656623972445085e-04 0.0000000000000000e+00  -4.7162028491020357e-04 4.6155897279844427e-04 0.0000000000000000e+00  -4.4167284445206198e-04 2.3437342460722586e-04 0.0000000000000000e+00  -1.7044987732225934e-04 4.7966620479203703e-05 0.0000000000000000e+00  -1.9583387538389775e-05 -1.5792137278654309e-05 0.0000000000000000e+00  -1.1897514236157148e-04 -2.3526653042754518e-05 0.0000000000000000e+00  6.2795447930612074e-04 4.7333612527081497e-04 0.0000000000000000e+00  4.7812854137255407e-04 9.7037749146189833e-04 0.0000000000000000e+00  -2.1085306013126769e-04 8.1064487005963243e-04 0.0000000000000000e+00  5.3222962306636527e-04 8.6292515934309933e-04 0.0000000000000000e+00  -5.0748215684382710e-05 7.9049885043576493e-04 0.0000000000000000e+00  5.0026830775996053e-04 2.5660414496299870e-04 0.0000000000000000e+00  3.4167875995029859e-04 6.8682047542629684e-04 0.0000000000000000e+00  3.8289427049135024e-04 5.5174933003475845e-04 0.0000000000000000e+00  1.9809300166235922e-05 -9.2085110453889684e-05 0.0000000000000000e+00  -5.9214379914913378e-05 1.3099043507786050e-04 0.0000000000000000e+00  7.3729301557337633e-04 6.1985193160866720e-04 0.0000000000000000e+00  1.5766328943991820e-03 7.1041399127602493e-04 0.0000000000000000e+00  1.0553034765108957e-03 2.4452508782581356e-04 0.0000000000000000e+00  6.0310172900556586e-04 3.9666615241985761e-04 0.0000000000000000e+00  3.8714400659379286e-04 2.1930227431148978e-04 0.0000000000000000e+00  3.8534713717699093e-04 -5.4444457475190887e-04 0.0000000000000000e+00  1.1828466711639215e-03 -7.1417773263906289e-04 0.0000000000000000e+00  -2.1015425101290384e-04 3.8296002449518854e-04 0.0000000000000000e+00  -6.0596350676703822e-04 5.3179563992970520e-04 0.0000000000000000e+00  1.7117596015275805e-04 -2.9458716016365980e-04 0.0000000000000000e+00  2.8893142764829425e-04 -1.0789407838345377e-04 0.0000000000000000e+00  -1.3912196274465710e-03 8.7417757290460946e-04 0.0000000000000000e+00  -2.0369002354283936e-04 7.1323180837320988e-04 0.0000000000000000e+00  -1.4241499477598260e-05 2.2231111381470227e-05 0.0000000000000000e+00  4.3189332777723322e-05 1.5982571017875770e-04 0.0000000000000000e+00  -1.1749711651067387e-03 -5.8540605288285642e-04 0.0000000000000000e+00  4.1863870772123691e-04 -6.3180567074986465e-04 0.0000000000000000e+00  -9.6544659559386784e-06 6.4349476496106613e-05 0.0000000000000000e+00  -5.0835949141953291e-03 6.5490522055902613e-04 0.0000000000000000e+00  5.1164229787395367e-04 1.5720106516318917e-03 0.0000000000000000e+00  3.0322387113718011e-04 4.9666222033768357e-04 0.0000000000000000e+00  2.0581211410467098e-04 7.0721028182131341e-05 0.0000000000000000e+00  1.4031354120950516e-05 1.9702028973550371e-05 0.0000000000000000e+00  -3.9018239915443372e-04 -3.5095742028383534e-04 0.0000000000000000e+00  1.8284625859556780e-04 -2.0894105328542707e-04 0.0000000000000000e+00  -7.0450668000682764e-03 1.8485432796019274e+00 0.0000000000000000e+00  1.9823041551447859e-02 2.2731886502934159e-01 0.0000000000000000e+00  -1.9168001520848261e-02 1.9967049574139586e+00 0.0000000000000000e+00  2.4732153139593406e-02 2.4464231414590407e+00 0.0000000000000000e+00  1.1918250355168556e-03 -1.2274389340888444e-04 0.0000000000000000e+00  1.0697876642820157e-03 -7.4374851227351313e-04 0.0000000000000000e+00  -3.7627112676534276e-04 -5.0573787604189682e-04 0.0000000000000000e+00  1.7330991403866733e-06 -5.1522168426720866e-05 0.0000000000000000e+00  8.1515103222023017e-02 1.0281803132857354e+00 0.0000000000000000e+00  8.3389543009811509e-02 -2.1149995389230085e+00 0.0000000000000000e+00  8.2998269490395821e-02 6.5444705842611495e-01 0.0000000000000000e+00  -6.3630145236662369e-02 2.1243286825162153e+00 0.0000000000000000e+00  -7.4262676179223306e-05 -8.5623689916129514e-04 0.0000000000000000e+00  -3.8774476617901192e-04 -1.1604150527521476e-03 0.0000000000000000e+00  4.5745329951673658e-01 2.5302222845629547e+00 0.0000000000000000e+00  -1.0690926891165264e-01 2.1563345611681601e+00 0.0000000000000000e+00  -1.2686445810111319e-02 2.0970272052585273e+00 0.0000000000000000e+00  1.0761049985640909e-01 1.7001190591081583e+00 0.0000000000000000e+00  9.0828296817836995e-02 -8.8523947036690231e-01 0.0000000000000000e+00  -7.4709056528280054e-02 -1.6612230212325110e+00 0.0000000000000000e+00  4.4057990792733470e-01 3.3862816507182667e+00 0.0000000000000000e+00  -5.0288250892981645e-01 2.9044739952171335e+00 0.0000000000000000e+00  -3.4479634155974992e-02 -1.4859311776856430e+00 0.0000000000000000e+00  1.3842041769054332e-02 1.6350124400839579e+00 0.0000000000000000e+00  -1.9641186392487586e-02 1.5991848251123517e+00 0.0000000000000000e+00  -6.8288004819544057e-02 -2.2285694654854211e+00 0.0000000000000000e+00  1.1537863219137796e+00 3.3081661086383876e+00 0.0000000000000000e+00  -2.7808182575508877e-01 2.5511075349446322e+00 0.0000000000000000e+00  6.3721623412755377e-02 7.3920539148341369e-01 0.0000000000000000e+00  3.7835505938950548e-03 1.3125099468652714e+00 0.0000000000000000e+00  2.0023173059603133e-01 -9.9199801061928361e-01 0.0000000000000000e+00  -1.3007976642195823e-01 -4.0258847813818149e-01 0.0000000000000000e+00  1.5735845451650238e-01 1.8952877541102066e-02 0.0000000000000000e+00  -1.2057104947830297e-01 -1.5901554421197446e+00 0.0000000000000000e+00  -1.0669047708795018e-01 -5.4893896632745964e-01 0.0000000000000000e+00  -1.4094011700330369e-01 -1.7616261015693058e+00 0.0000000000000000e+00  -2.5273133358128291e-02 2.2356893804168299e+00 0.0000000000000000e+00  2.9165680614371196e-02 -1.7512754966422055e+00 0.0000000000000000e+00  2.4186070919191859e-02 -1.1414121874230827e-01 0.0000000000000000e+00  1.4107605981711014e-05 -1.1374428023318174e-05 0.0000000000000000e+00  3.5937218813224717e-02 -6.3137268928326062e-01 0.0000000000000000e+00  6.5918624081815869e-02 1.6719700617824209e+00 0.0000000000000000e+00  6.2573309532321878e-04 -8.6695725026022217e-04 0.0000000000000000e+00  7.4431046438927576e-02 1.8465874439683174e+00 0.0000000000000000e+00  5.8234030625319406e-02 7.1189878390147765e-01 0.0000000000000000e+00  5.2618200011100437e-02 -1.6917195050927969e+00 0.0000000000000000e+00  1.5676400069170685e-01 -6.7808526966642912e-01 0.0000000000000000e+00  -1.3823966410490257e-01 2.0413180240511553e+00 0.0000000000000000e+00  5.8068664442166698e-02 -1.7555617377009132e+00 0.0000000000000000e+00  -2.2764896793348036e-02 -1.8821574081977293e+00 0.0000000000000000e+00  5.2891693386961841e-02 1.4358075510207342e+00 0.0000000000000000e+00  3.7413037538503043e-04 -1.2365146537829855e-04 0.0000000000000000e+00  3.5494639001794185e-03 -1.0491308652422887e-03 0.0000000000000000e+00  -4.9503550145483849e-04 -9.0684322227732323e-04 0.0000000000000000e+00  1.9659042627609122e-02 6.2517331330105264e-01 0.0000000000000000e+00  1.0589520631571469e-02 -1.3639335346958013e+00 0.0000000000000000e+00  1.7213064990139973e-01 -1.8540634052833507e+00 0.0000000000000000e+00  2.7970265998921329e-01 -1.4342737392945135e+00 0.0000000000000000e+00  2.5422897325903697e-05 -9.8190106881004000e-04 0.0000000000000000e+00  2.6260803673832867e-01 2.7080169507883225e+00 0.0000000000000000e+00  7.0992453190965843e-01 -1.8173459679794775e+00 0.0000000000000000e+00  4.4683919921711646e-01 -6.1075984208624901e-01 0.0000000000000000e+00  -2.8013846095783940e-01 3.1132233785770225e-01 0.0000000000000000e+00  -1.2425073447524962e-01 2.2373495670826191e+00 0.0000000000000000e+00  8.3283221119134830e-04 -2.4843095951579554e-04 0.0000000000000000e+00  -2.3655675247301433e-03 -6.4763050735946028e-04 0.0000000000000000e+00  1.0873680040190796e-03 1.7362870410992181e-04 0.0000000000000000e+00  -6.1506735513442638e-04 -3.6640523756435397e-04 0.0000000000000000e+00  -9.4146410355264349e-04 -6.3254291419722339e-04 0.0000000000000000e+00  -5.2588954570583438e-03 3.5028113506009964e-04 0.0000000000000000e+00  4.8157511365397055e-04 -6.5939450005645631e-04 0.0000000000000000e+00  -1.2855669137700866e-02 -1.0512630639012375e+00 0.0000000000000000e+00  -1.0500773850582729e-02 -2.2572902318559223e+00 0.0000000000000000e+00  5.4356370777009430e-02 -1.1814344332395468e+00 0.0000000000000000e+00  -6.9673696755850029e-02 1.4565341855888854e+00 0.0000000000000000e+00  4.9196910354235056e-04 -2.0803798132573079e+00 0.0000000000000000e+00  -2.2945422147768645e-02 8.4148689083617989e-01 0.0000000000000000e+00  -1.5855361944246291e+00 -4.9577955014946079e-01 0.0000000000000000e+00  -4.1115110447404968e-01 -1.1312353418310668e+00 0.0000000000000000e+00  4.2154526587716602e-02 1.6850193022812743e-01 0.0000000000000000e+00  7.4332382687935503e-02 -2.7436917303945108e-01 0.0000000000000000e+00  -7.8626531815478140e-01 -9.5018290358128166e-01 0.0000000000000000e+00  -1.3590976247457082e-01 2.0118519185651778e+00 0.0000000000000000e+00  4.3455538576097803e-02 -6.8728991102676351e-01 0.0000000000000000e+00  9.6449324059973433e-05 -4.2074633794974897e-04 0.0000000000000000e+00  -4.9016187291600764e-07 -1.0949990634975211e-05 0.0000000000000000e+00  -8.9761575094580354e-02 2.2181172651980696e+00 0.0000000000000000e+00  2.1704493277856374e-01 4.9167997527825337e-02 0.0000000000000000e+00  -2.9333277377787265e-01 -1.8642097989016633e+00 0.0000000000000000e+00  -5.0783068357849480e-02 1.3528068408255378e+00 0.0000000000000000e+00  6.2011175245284211e-01 1.2636427294972297e-01 0.0000000000000000e+00  7.6574686659559119e-02 -9.8132981027255661e-01 0.0000000000000000e+00  -1.9006039931465008e-02 -2.0197402782399787e+00 0.0000000000000000e+00  -9.5057777206017366e-02 1.8214381117505618e+00 0.0000000000000000e+00  6.7950181578577858e-03 2.5673808721360660e+00 0.0000000000000000e+00  5.9141509435798822e-02 -1.1707694241681221e+00 0.0000000000000000e+00  1.0555811498667654e-02 -1.9378000084716773e+00 0.0000000000000000e+00  1.0153224537693659e-01 6.6702436799725606e-01 0.0000000000000000e+00  -5.6818539310128285e-02 -1.3057514748818724e+00 0.0000000000000000e+00  4.0899342938967673e-02 -1.2174090614081210e+00 0.0000000000000000e+00  7.2453648472604534e-02 -9.5868429093129970e-01 0.0000000000000000e+00  -2.1111069187409745e-01 -1.8772954732124565e+00 0.0000000000000000e+00  7.1273111759378921e-02 -1.0870003764854665e+00 0.0000000000000000e+00  -6.4233925057345528e-02 1.7466774606240614e+00 0.0000000000000000e+00  2.3886534207452603e-01 1.7966142896008885e+00 0.0000000000000000e+00  1.8417747639384710e-02 -2.0416365243915839e+00 0.0000000000000000e+00  -4.6410614277639199e-03 -1.1294168108148155e+00 0.0000000000000000e+00  4.2765949684439426e-02 4.8420141190944849e-01 0.0000000000000000e+00  1.1840017083750027e+00 2.3965378935926469e+00 0.0000000000000000e+00  1.5033392090205313e+00 -2.0184709599008036e-01 0.0000000000000000e+00  -7.0294431548698333e-01 -1.1931726815818433e-01 0.0000000000000000e+00  -2.3170497158336664e-01 1.6301655094724525e+00 0.0000000000000000e+00  -5.3891579556244629e-01 1.8644540850255358e+00 0.0000000000000000e+00  -1.8540844045804875e-01 -1.9600524744719159e+00 0.0000000000000000e+00  1.2629781942086815e-01 8.9802221223007817e-01 0.0000000000000000e+00  -2.1005565960129957e-01 -1.3292891254316572e+00 0.0000000000000000e+00  8.0898932686540442e-02 -1.1005589683148760e+00 0.0000000000000000e+00  -1.4425424505399236e+00 1.7123600884477366e+00 0.0000000000000000e+00  1.4960438519726747e-02 6.1611959031078389e-01 0.0000000000000000e+00  8.6084610281106894e-02 1.2465044048102849e+00 0.0000000000000000e+00  -5.2363727963519464e-02 -1.9090456201009545e+00 0.0000000000000000e+00  -2.5159649750450163e-02 -1.8238003655539481e+00 0.0000000000000000e+00  3.6600561641337896e-02 -9.4018357191188850e-01 0.0000000000000000e+00  3.2053422194748868e-02 1.1666461051263592e+00 0.0000000000000000e+00  3.1378758672800627e-02 -1.1180716781380247e+00 0.0000000000000000e+00  5.2379930270084286e-02 -5.2663075632959999e-01 0.0000000000000000e+00  -1.1351733840192751e-01 2.7660684450231754e+00 0.0000000000000000e+00  -7.9835945568186850e-02 -1.9295174398133634e+00 0.0000000000000000e+00  1.8520113158576795e-02 2.3413991876279177e+00 0.0000000000000000e+00  -8.9250824951541508e-01 2.3135353146004083e+00 0.0000000000000000e+00  3.2971241511375440e-02 8.8468101297546975e-01 0.0000000000000000e+00  5.2190453689126248e-01 2.5017224412596786e+00 0.0000000000000000e+00  -4.2385350653980046e-02 1.5076406369745989e+00 0.0000000000000000e+00  5.5312352662156162e-03 -1.4888145329119298e+00 0.0000000000000000e+00  1.4307824023288004e-01 -1.0451353414848572e+00 0.0000000000000000e+00  -1.3088332904462235e-01 -1.9068658997090415e+00 0.0000000000000000e+00  -5.8175938491913652e-02 -2.2607659342972015e+00 0.0000000000000000e+00  -9.3063852889120544e-03 -1.0966263864974655e+00 0.0000000000000000e+00  1.4978249134639676e-01 -1.7775637079352011e+00 0.0000000000000000e+00  1.9284152485609654e-01 -1.0588813834300416e-01 0.0000000000000000e+00  7.9150003073910607e-03 -1.5889068177102850e+00 0.0000000000000000e+00  -1.7865596918585000e-01 1.9823284530725638e+00 0.0000000000000000e+00  -5.3111428627273888e-02 1.9365191018191112e+00 0.0000000000000000e+00  7.1484574421617986e-02 -1.5015003663819846e+00 0.0000000000000000e+00  1.8872201375669934e-02 -9.1764072455766810e-01 0.0000000000000000e+00  4.4024432848753070e-02 -1.6117361169084130e+00 0.0000000000000000e+00  -1.0590884276316145e-01 1.7966827364261742e+00 0.0000000000000000e+00  2.8635234365352774e-01 -3.3234208676277494e-01 0.0000000000000000e+00  -4.0809666262761973e-02 -6.6585006371938293e-01 0.0000000000000000e+00  3.4669859733409769e-01 -9.5508002980084261e-01 0.0000000000000000e+00  -1.9680839186404658e-01 2.2576660960107962e+00 0.0000000000000000e+00  -2.9210888791175536e-02 -1.7935675395535455e+00 0.0000000000000000e+00  -1.0697310198680945e+00 2.6775988010074876e+00 0.0000000000000000e+00  1.2534120363061577e-01 2.0296248179123761e+00 0.0000000000000000e+00  7.3357340829853632e-04 -6.7247905772255744e-04 0.0000000000000000e+00  1.2295777054555672e-01 -1.6803363038189734e+00 0.0000000000000000e+00  4.3689925489421707e-03 -2.3380110036707591e+00 0.0000000000000000e+00  5.2402422546394056e-01 -1.6162607410038115e+00 0.0000000000000000e+00  2.5358299416024854e-01 -3.7560422675331284e-01 0.0000000000000000e+00  -7.2549818049935221e-04 -6.4637922667741706e-04 0.0000000000000000e+00  -2.8422406615078538e-01 -1.4126258338738862e+00 0.0000000000000000e+00  8.3490519282010238e-04 -8.0573115930103898e-05 0.0000000000000000e+00  3.2355034319386033e-01 7.4770120610611157e-01 0.0000000000000000e+00  3.7412471579993651e-04 1.6495294495873005e-04 0.0000000000000000e+00  -1.2760450921139521e-04 -9.2209442868340619e-04 0.0000000000000000e+00  -1.3831970681366709e-01 -7.1368176480869780e-02 0.0000000000000000e+00  1.1174346737475863e-02 -5.3125059775925104e-02 0.0000000000000000e+00  -1.3972542484362158e-01 1.9341055208401863e+00 0.0000000000000000e+00  -9.1679652439756343e-02 -1.4067991020901072e+00 0.0000000000000000e+00  1.0622662833892274e-02 -9.5275787045466021e-01 0.0000000000000000e+00  -1.2459791834173015e-01 2.2561679536870689e+00 0.0000000000000000e+00  7.4656952146396699e-02 2.2254912455428641e+00 0.0000000000000000e+00  1.6736108997244290e-02 5.0538747682689411e-01 0.0000000000000000e+00  1.6985827606818157e-02 2.3843762309568683e+00 0.0000000000000000e+00  2.3355760996115835e-02 -1.7997833857387058e-01 0.0000000000000000e+00  3.0314674692614108e-02 -1.9435562965907045e+00 0.0000000000000000e+00  3.3112260337654892e-01 2.2270275232217500e+00 0.0000000000000000e+00  9.7802327139249545e-01 9.2469995010807365e-03 0.0000000000000000e+00  3.7077172564894423e-01 -6.5775273663589340e-01 0.0000000000000000e+00  2.5968059893444275e-02 -1.3426525296033676e+00 0.0000000000000000e+00  -2.1304753738704971e-02 2.3107143907177110e+00 0.0000000000000000e+00  3.9374886083017851e-03 1.5573016369949599e+00 0.0000000000000000e+00  -2.9747556419571310e-02 -1.3576986864317828e+00 0.0000000000000000e+00  3.0398408684452272e-01 1.8536466102129412e+00 0