<?xml version="1.0"?>
<VTKFile type="UnstructuredGrid"  version="0.1"  >
<UnstructuredGrid>
<Piece  NumberOfPoints="4835" NumberOfCells="9296">
<Points>
<DataArray  type="Float64"  NumberOfComponents="3"  format="ascii">0 1.5 0  -0 0.1307014797437256 0  0.01134725726173103 0.1483581566929452 0  0.04283342385313163 0.181379897845022 0  0.08000000000000007 0.2078460969082653 0  0.1215036888038188 0.2268001964915204 0  0.1658444388144116 0.2375571460514239 0  0.2114196597976982 0.2397281614039219 0  0.2565821445222626 0.23323477639765 0  0.2996996031204527 0.2183116788850844 0  0.3392136582970876 0.1954982284920806 0  0.3736961691452169 0.1656189627557069 0  0.4019008478794835 0.1297537961893434 0  0.4059948616314525 0.1218125174167552 0  0.4254856317806581 0.1498156710261111 0  0.4592156240140376 0.1818784194956707 0  0.498709345141744 0.2064950441012706 0  0.5423499175804942 0.222657737339227 0  0.588350691167096 0.2297047966493422 0  0.6348283888260526 0.2273477145954656 0  0.6798802081543086 0.2156829903938285 0  0.7216617223752013 0.1951881792237927 0  0.7584623913874079 0.1667023410626976 0  0.7879811633353602 0.1323170874919288 0  0.8152477706948351 0.1684239109116393 0  0.849341340905186 0.1995043068200599 0  0.8885654110558655 0.2237908228387656 0  0.9315842524819793 0.2404564107932048 0  0.9769329101341745 0.2489335440737586 0  1.023067089865825 0.2489335440737586 0  1.068415747518021 0.2404564107932048 0  1.111434588944135 0.2237908228387656 0  1.150658659094814 0.1995043068200599 0  1.184752229305165 0.1684239109116393 0  1.212554283932403 0.1316080407193389 0  1.233118057351089 0.09031041654678823 0  1.245743274920975 0.04593737945414259 0  1.25 0 0  1.36108673858246 0 0  1.36108673858246 0.02281345039300389 0  1.369721686332521 0.06761581364194322 0  1.386679492322819 0.1099743652145785 0  1.411347257261731 0.1483581566929452 0  1.442833423853132 0.181379897845022 0  1.48 0.2078460969082653 0  1.521503688803819 0.2268001964915204 0  1.565844438814412 0.2375571460514239 0  1.611419659797698 0.2397281614039219 0  1.656582144522263 0.23323477639765 0  1.699699603120453 0.2183116788850844 0  1.739213658297088 0.1954982284920806 0  1.765497292517293 0.1727233297951148 0  1.79 0.1905255888325765 0  1.832016261237511 0.2092324335849338 0  1.877003738081116 0.2187948169810202 0  1.922996261918884 0.2187948169810201 0  1.967983738762488 0.2092324335849338 0  2.01 0.1905255888325765 0  2.047208733398949 0.1634918616050267 0  2.077983738762488 0.1293127555043441 0  2.087980221556173 0.1119983394086949 0  2.111347257261731 0.1483581566929452 0  2.142833423853131 0.181379897845022 0  2.18 0.2078460969082653 0  2.221503688803819 0.2268001964915204 0  2.265844438814411 0.2375571460514239 0  2.311419659797698 0.2397281614039219 0  2.356582144522263 0.23323477639765 0  2.399699603120453 0.2183116788850844 0  2.439213658297088 0.1954982284920806 0  2.457172785224357 0.179936556425434 0  2.459215624014038 0.1818784194956707 0  2.498709345141744 0.2064950441012706 0  2.542349917580494 0.222657737339227 0  2.588350691167096 0.2297047966493422 0  2.634828388826053 0.2273477145954656 0  2.679880208154309 0.2156829903938285 0  2.721661722375202 0.1951881792237927 0  2.758462391387408 0.1667023410626976 0  2.788775591477674 0.1313916894718022 0  2.811360296672653 0.09070184667606328 0  2.825291886488074 0.04629865962039181 0  2.83 0 0  3 0 0  3 1.5 0  0 0.8023345134541607 0  0.4157402467060553 0.1358140942214332 0  3 0.75 0  1.5 1.5 0  0 0.4665179965989431 0  3 0.375 0  0 0.2986097381713344 0  0 0.21465560895753 0  0 0.1726785443506278 0  0 0.1516900120471767 0  2.25 1.5 0  0.75 1.5 0  1.169989811679434 0.9093651732355621 0  1.875 0.9142758100523694 0  0.5779365036100435 0.9330077223331824 0  2.43246936225428 0.7976868957014953 0  3 1.125 0  2.625 1.5 0  0.375 1.5 0  0 1.15116725672708 0  1.449253057879235 0.6213873587688492 0  0.7697361971202799 0.5943793911944208 0  0.3630076616442724 0.6080350564914153 0  2.069570984533324 0.5812833454367354 0  1.875 1.5 0  1.125 1.5 0  2.4375 1.173854331507092 0  0.8831005780031504 1.150004411874495 0  1.52207987625039 0.9714054497350916 0  2.0625 1.207137905026185 0  1.107793318688589 0.5766433232347881 0  1.3125 1.2274095306559 0  2.729985961523573 0.9375 0  2.711750443384031 0.5625 0  1.6875 1.243073622519403 0  1.760894209596057 0.6242614373612321 0  0.2643049832376852 0.9767508850906206 0  0.4566194854768236 1.209399638766609 0  2.728217267602858 1.228217267602858 0  2.374499195658668 0.518153287180279 0  2.169650674143702 0.9320836008992801 0  0.8550719231757007 0.8663457099410541 0  1.303567858855371 0.4078893824383345 0  0.2133194436665546 1.297827371069245 0  0.5308017499037517 0.4517023193912283 0  1.083077097725883 1.270382833575872 0  0.6830238102386342 1.274223132985906 0  2.250983943328481 0.6895458766515071 0  1.81089184968521 0.4192208869708923 0  1.679274712803154 0.8238291020339636 0  1.5785148524717 0.4510287526682343 0  0 0.6344262550265519 0  0.2138866804674432 0.765685327335986 0  0.5683532856219899 0.6602211278972628 0  0.9375 1.5 0  0.93201471049342 0.4568525359126817 0  1.262687644113192 0.7198627504483751 0  0.4154000952342595 0.8069446327163143 0  0.2139559556345817 0.4540330649264536 0  2.06977986811652 0.3813318272583126 0  0.7200651071201811 0.4061566188086219 0  1.932157822851692 0.7243325602448901 0  0.9441947922338874 0.689010158618046 0  3 1.3125 0  2.8125 1.5 0  0.5625 1.5 0  1.865575888969794 1.126762336039809 0  1.691368628814911 1.054521333692312 0  2.243682835689564 1.11932177110543 0  2.294933652681559 1.30886281903233 0  2.4375 1.5 0  2.385653526545621 0.9864303388879195 0  2.560603055863368 1.320052196970997 0  2.605098352881707 1.08210421072607 0  2.797310903081369 0.7462827406561878 0  1.497248537655819 1.30111187331848 0  1.6875 1.5 0  3 0.5625 0  3 0.9375 0  1.3125 1.5 0  2.0625 1.5 0  3 0.1875 0  0.1875 1.5 0  0.9978323986844071 0.9954535003819682 0  0.7455388243606953 1.020382929522352 0  1.904625246064701 1.312514164033404 0  1.15622562020362 1.097022204090454 0  1.332774827327096 1.015638362851981 0  2.617489052932561 0.7904306825848915 0  2.798834931624827 0.3810601956207291 0  2.518702939674024 0.6340258449062608 0  1.42862153170688 0.8082655083169574 0  2.016051725629557 1.02698392558818 0  2.557580898838836 0.4303899543284488 0  0.9143579924460792 1.324371521638632 0  0.6907201107072946 0.792483910827579 0  0 1.32558362836354 0  0 0.9767508850906206 0  0.6046140448732628 1.120294499938289 0  1.129353874055204 0.4037183319394277 0  2.240578803971554 0.4086758810341738 0  1.544887400155686 1.138911442832316 0  2.828734594747712 1.083464790593587 0  0.401358428169992 0.3487630281226344 0  0.1737226743516005 1.126953194380642 0  1.219293394173851 1.36370476532795 0  2.095593203128485 0.7438044944874065 0  1.099947866649755 0.7404984974094087 0  0.4225987016856009 0.9654760294046846 0  1.265404984472296 0.5615537191035901 0  1.908099381276504 0.55154028811489 0  1.605233217264331 0.6055204891939014 0  0.2070403235706232 0.6098576665994301 0  0.46875 1.369568887475175 0  2.529999076220762 0.9220559311443081 0  0.3296306516835505 1.118561581461605 0  2.136891098712708 1.353568952513092 0  0.1250262355603041 0.8895426992723907 0  2.286468869522623 0.8363516131379349 0  2.03024950667879 0.8782110935537075 0  2.71875 1.380113023166798 0  2.851157149000174 1.312122703709591 0  2.855875221692015 0.6072101925796368 0  1.766081959310164 1.371536811259701 0  2.417227117459742 0.3724437385102629 0  1.365276810157265 1.363519047380362 0  1.451310499971155 0.3640091006357036 0  2.211012611580202 0.5503989260541815 0  1.306789156675977 0.2570819477057019 0  2.872418607762505 0.256220469598872 0  2.896902016958361 0.84375 0  0.6487095286926469 0.5256523827174592 0  1.021477811485347 1.13286821063065 0  1.622350554793597 1.371881362989231 0  1.297557547403682 0.854343314165958 0  0.5529398034156436 0.7974238691464364 0  1.000783388185185 0.848708117631217 0  0.8152141294141361 0.735251676415229 0  2.383386472338196 0.654760318649699 0  1.031024064601143 1.39833771698851 0  1.812756223744312 0.7919737740986065 0  2.902150447032281 0.46875 0  1.558478314279628 0.7430881247578319 0  2.428095049619715 1.306700780290589 0  0.3309906154406318 1.369459454266083 0  0.117457385934373 0.361895434578648 0  0.4016309285334721 0.4812757168525422 0  1.933925005895449 0.3564723397117748 0  0.7479761182598068 1.155601287121883 0  0.09711831342126455 1.23837544254531 0  1.384025258268523 0.5094422387329146 0  2.188092881729461 1.235445092789212 0  0.116614462422195 1.388212202394539 0  0.5993432477835932 1.374610260003488 0  0.8731519049868882 1.022757560732678 0  0.1109021857268646 0.5275252102504697 0  1.703820060431276 0.5017282682884084 0  0.1118224159219883 0.6921053365242938 0  0.3267069786561488 1.244030051070764 0  2.878127312164905 0.9679608000003684 0  1.408346090782441 1.129729637108486 0  0.8047358880839842 0.3153623688883521 0  2.6405066654848 0.6664933064830099 0  0.4805702216488833 1.081724858267193 0  2.668084598222495 0.3562155878484895 0  2.138121375887776 1.052804865904559 0  1.96875 1.5 0  0.4891907154726056 0.5668366043293971 0  0.1473863332166031 1.0086557402922 0  2.558860649578938 1.196592162044302 0  1.717555244640741 0.3396535732296396 0  0.84375 1.5 0  0.7839942032523698 1.367093097528149 0  3 1.40625 0  2.484124862262918 1.060073596740424 0  3 1.21875 0  2.34375 1.5 0  0.8196209764267471 1.251369088398821 0  2.023202270335131 1.319214170177879 0  0.5721208504581607 1.233781127425821 0  1.984735816620384 0.462442873488178 0  0.6955333931194808 0.9118686683832042 0  1.19123464962554 1.213906677421382 0  0.8929803638185398 0.5752987850534633 0  1.566736823664244 0.8614646887466211 0  1.808684073906441 1.017786844668201 0  1.719105195888173 0.9374041347540488 0  1.671476674178274 0.70476362875428 0  1.218260709491531 0.330629071498573 0  2.839021519587611 1.19788439058923 0  0.5170070740021471 0.3361933937254621 0  1.393527188254162 0.91788143976
[...]
<PointData  Vectors="f_60"> 
<DataArray  type="Float64"  Name="f_60"  NumberOfComponents="3" format="ascii">-7.0376761236322436e-05 -3.1227640954179669e-04 0.0000000000000000e+00  -9.1823416092927439e-05 9.4090490729531824e-06 0.0000000000000000e+00  7.1433956159979499e-05 2.4252781238095151e-05 0.0000000000000000e+00  3.6315775909436958e-04 2.2020789753744889e-04 0.0000000000000000e+00  1.7502435660457150e-04 6.1162555969848762e-04 0.0000000000000000e+00  -4.7596509745804740e-04 7.2051173823708026e-04 0.0000000000000000e+00  -8.1367954695202134e-05 8.9180663125839048e-04 0.0000000000000000e+00  6.9576632395104406e-04 8.9149822015845040e-04 0.0000000000000000e+00  -6.2097298878144335e-04 5.7860146951353177e-04 0.0000000000000000e+00  7.6143484593681155e-04 4.1903293777323879e-04 0.0000000000000000e+00  8.3310016262769221e-05 9.0066373428598554e-04 0.0000000000000000e+00  -4.7041319218428979e-04 1.1122392067335072e-03 0.0000000000000000e+00  8.8234781018959178e-05 1.4550011508534136e-04 0.0000000000000000e+00  8.3790513901075729e-05 1.2727592856086556e-04 0.0000000000000000e+00  1.2192121107364471e-04 3.5173874056495998e-04 0.0000000000000000e+00  -1.2872004830896848e-04 4.0049136956291331e-04 0.0000000000000000e+00  3.7860112189472484e-04 9.7512506314279522e-04 0.0000000000000000e+00  5.0557351603515790e-04 9.6835837201794748e-04 0.0000000000000000e+00  -3.7754925448090393e-04 5.0171759179135707e-04 0.0000000000000000e+00  6.7257104745112165e-04 3.5319323642181075e-04 0.0000000000000000e+00  -4.5330360207788739e-04 9.3611118582942346e-04 0.0000000000000000e+00  -1.5586090430277970e-04 7.6482694990573222e-04 0.0000000000000000e+00  -1.2519763092785192e-04 4.4903317027945882e-04 0.0000000000000000e+00  -1.6196924111533815e-04 8.7229538674599990e-05 0.0000000000000000e+00  2.9951993842414654e-04 7.1670295139662646e-04 0.0000000000000000e+00  6.7279750139300778e-04 1.1139766631478641e-03 0.0000000000000000e+00  -6.6225828756012869e-04 3.9969817978818280e-04 0.0000000000000000e+00  -2.8357133874120700e-04 2.5714761182062693e-04 0.0000000000000000e+00  -1.9705433206272400e-04 9.7949051164699990e-04 0.0000000000000000e+00  -2.3639547714271868e-04 8.2284044432270518e-04 0.0000000000000000e+00  5.1617808524866810e-04 7.3342799650774593e-04 0.0000000000000000e+00  -6.1578192359749778e-04 9.2851777245737683e-04 0.0000000000000000e+00  4.1752809965000745e-04 6.4970171784953256e-05 0.0000000000000000e+00  5.8005556408671180e-04 -2.9998908297725264e-04 0.0000000000000000e+00  -1.4084768426762185e-04 3.9096156613174120e-04 0.0000000000000000e+00  -6.4871065956928107e-04 9.7510498561390112e-04 0.0000000000000000e+00  9.0917517833669442e-05 9.6994004184802827e-04 0.0000000000000000e+00  3.7518046526134353e-04 6.4933059482713323e-04 0.0000000000000000e+00  1.9989885666819439e-04 2.2905975779029153e-04 0.0000000000000000e+00  2.0735038871042699e-04 3.8182165411471006e-04 0.0000000000000000e+00  1.3098588590032884e-04 6.4174576227205536e-04 0.0000000000000000e+00  -1.6942200927289722e-04 3.5231559131920271e-04 0.0000000000000000e+00  -2.9744976535023081e-05 6.7076292273845442e-04 0.0000000000000000e+00  4.0564013744189096e-04 9.8858593620201884e-04 0.0000000000000000e+00  -4.0973498887754499e-04 4.8884618810725430e-04 0.0000000000000000e+00  -2.1001342774977871e-04 4.0982805296466959e-04 0.0000000000000000e+00  3.0086860623420957e-04 5.7269188818114827e-04 0.0000000000000000e+00  -7.7875530782476558e-04 9.6707366271053818e-04 0.0000000000000000e+00  7.3842237593406044e-04 7.5827543785167591e-04 0.0000000000000000e+00  2.9185239713037996e-04 7.3842374638261315e-04 0.0000000000000000e+00  -6.8286911293348202e-04 3.7000655630850011e-04 0.0000000000000000e+00  -4.1885698614552619e-04 2.9399241752402975e-04 0.0000000000000000e+00  -1.6197343475203799e-04 2.8527675508733949e-04 0.0000000000000000e+00  3.3791989374940381e-04 6.8121009462282739e-04 0.0000000000000000e+00  2.1953688764235515e-04 7.7113101517736716e-04 0.0000000000000000e+00  -1.0818164812644452e-05 8.8188667258503846e-04 0.0000000000000000e+00  6.2902818671159769e-04 5.9568724807969136e-04 0.0000000000000000e+00  -2.9832057660914767e-04 3.8590952352676711e-04 0.0000000000000000e+00  -4.9758196889577641e-04 3.0662803677285476e-04 0.0000000000000000e+00  -2.1516395115388394e-04 1.0076894006852795e-04 0.0000000000000000e+00  -1.0859042441226905e-05 3.3183143992043756e-05 0.0000000000000000e+00  -1.4060793749614626e-04 5.2509610718910320e-05 0.0000000000000000e+00  6.9134773138147961e-04 6.0944558676011534e-04 0.0000000000000000e+00  5.8667042847502810e-04 9.0846221317175528e-04 0.0000000000000000e+00  -4.5517153094915740e-04 6.2079392281490719e-04 0.0000000000000000e+00  4.2860329258758621e-04 8.3961451181875819e-04 0.0000000000000000e+00  1.8559214258289142e-04 7.7738648217139030e-04 0.0000000000000000e+00  9.9767302366491649e-05 2.6865313585185634e-04 0.0000000000000000e+00  3.6369183780681071e-04 5.9354223248822210e-04 0.0000000000000000e+00  5.7621682210374971e-04 1.2611873654734204e-03 0.0000000000000000e+00  -1.0176470796603762e-03 3.9937144572936849e-04 0.0000000000000000e+00  6.8891982806757910e-04 4.0052029492096034e-04 0.0000000000000000e+00  4.2510469982823495e-04 9.2521571811336268e-04 0.0000000000000000e+00  9.7044541084916752e-04 7.0047310540041383e-04 0.0000000000000000e+00  7.0534192651365395e-04 3.8552674541565034e-04 0.0000000000000000e+00  9.3344105539110687e-04 -5.0653480762786432e-04 0.0000000000000000e+00  1.4955692481851063e-03 -4.9433734739846109e-04 0.0000000000000000e+00  -7.3042236191912921e-04 -8.5456794145393709e-05 0.0000000000000000e+00  -1.0368078570319028e-04 -2.8324628741588554e-04 0.0000000000000000e+00  7.0645149664122834e-04 -3.8754951212329424e-04 0.0000000000000000e+00  -6.3361119853575353e-05 1.9605729178999161e-04 0.0000000000000000e+00  -1.7163476426949631e-05 1.1292629104748391e-04 0.0000000000000000e+00  -1.0228072304691403e-05 1.7673077419051881e-05 0.0000000000000000e+00  -2.2101555435603466e-03 1.1254054048381139e-03 0.0000000000000000e+00  -1.0175550271203514e-03 -2.9074577479429667e-04 0.0000000000000000e+00  -4.4811007380916211e-06 1.0905665537857193e-05 0.0000000000000000e+00  1.2728489339464496e-04 2.2651247658898196e-04 0.0000000000000000e+00  -1.9852662059389919e-04 -3.6860334515044079e-04 0.0000000000000000e+00  3.0590431694990292e-04 -6.0991364612323002e-04 0.0000000000000000e+00  -5.9817104756082169e-06 7.7204762178858575e-05 0.0000000000000000e+00  -4.7994634864888990e-03 5.0664649294853206e-04 0.0000000000000000e+00  3.3676515101273882e-04 1.0360415689933680e-03 0.0000000000000000e+00  2.6042054411411046e-04 6.3628696122440445e-04 0.0000000000000000e+00  2.2259045350548319e-04 1.7177955024183123e-04 0.0000000000000000e+00  1.5503868665760400e-05 7.2266637970651502e-05 0.0000000000000000e+00  -2.7884864097423023e-04 -3.9839299754643257e-04 0.0000000000000000e+00  5.9564458308811293e-05 -2.3484790707691631e-04 0.0000000000000000e+00  -2.9209684565820064e-05 1.3909538405649711e+00 0.0000000000000000e+00  1.6589375756425811e-02 1.6168277044139517e-01 0.0000000000000000e+00  -7.5710666414200633e-03 1.5013186211958869e+00 0.0000000000000000e+00  1.9987354167820366e-03 1.8706260923889226e+00 0.0000000000000000e+00  1.7254630149122270e-03 -2.7695474289160689e-04 0.0000000000000000e+00  3.3330706586413119e-05 -7.4187215613860571e-04 0.0000000000000000e+00  -9.7838465791553502e-05 -5.2807117119890647e-04 0.0000000000000000e+00  -9.8503747423156094e-06 -1.4055593549616173e-05 0.0000000000000000e+00  5.5718275972517252e-02 8.0947899239367804e-01 0.0000000000000000e+00  5.8285850428343985e-02 -1.5804494336240187e+00 0.0000000000000000e+00  6.4381451378821022e-02 4.4739505499774684e-01 0.0000000000000000e+00  -5.7725701955131381e-02 1.5830269907945367e+00 0.0000000000000000e+00  3.1841404104833585e-06 -7.6165637420825129e-04 0.0000000000000000e+00  -3.3928367772245298e-04 -1.0132226947744576e-03 0.0000000000000000e+00  3.3186357426023089e-01 1.7861065131886000e+00 0.0000000000000000e+00  -7.1040132756065383e-02 1.6089376739628480e+00 0.0000000000000000e+00  -5.2755780208098438e-03 1.5770225768215755e+00 0.0000000000000000e+00  7.9736761266605435e-02 1.3071044248345514e+00 0.0000000000000000e+00  7.1682536893555471e-02 -6.2467187934348944e-01 0.0000000000000000e+00  -5.9907181795341727e-02 -1.2152147630945913e+00 0.0000000000000000e+00  2.8815961306582705e-01 2.5124853339885411e+00 0.0000000000000000e+00  -4.0065366586563694e-01 2.4424362232872787e+00 0.0000000000000000e+00  -3.2901371738655899e-02 -1.1302682091727074e+00 0.0000000000000000e+00  7.8695553528171265e-03 1.2379585065339043e+00 0.0000000000000000e+00  -9.5340657922642416e-03 1.1991374024468482e+00 0.0000000000000000e+00  -5.8885192186878259e-02 -1.6862635525322609e+00 0.0000000000000000e+00  8.1936445138223701e-01 2.4382427528939719e+00 0.0000000000000000e+00  -2.2773671114783445e-01 1.8966609820849063e+00 0.0000000000000000e+00  5.1418094563305587e-02 5.3085238010555069e-01 0.0000000000000000e+00  6.8718566822394680e-03 9.9204890283912395e-01 0.0000000000000000e+00  1.4564494032193490e-01 -8.4835333764096232e-01 0.0000000000000000e+00  -9.6889912991843533e-02 -3.6411537973719693e-01 0.0000000000000000e+00  1.1407164001413551e-01 8.1576044042515353e-02 0.0000000000000000e+00  -9.7527965164648941e-02 -1.2409845487995532e+00 0.0000000000000000e+00  -7.9443676839345348e-02 -3.5545235118000468e-01 0.0000000000000000e+00  -9.2531583804421183e-02 -1.3339383183660156e+00 0.0000000000000000e+00  -1.9657647865075630e-02 1.6833044657265595e+00 0.0000000000000000e+00  1.8513789078555946e-02 -1.3120264456202635e+00 0.0000000000000000e+00  1.1561349576592056e-02 -9.2412963219486430e-02 0.0000000000000000e+00  5.6819452097633137e-06 5.4854964214387053e-06 0.0000000000000000e+00  2.6225352053411411e-02 -4.6052987183703764e-01 0.0000000000000000e+00  5.1704567238790466e-02 1.2828215979802038e+00 0.0000000000000000e+00  7.1791613227748928e-04 -8.0222931143386134e-04 0.0000000000000000e+00  4.7890277796302262e-02 1.3688359733425275e+00 0.0000000000000000e+00  4.5096301648092939e-02 5.0226753723599227e-01 0.0000000000000000e+00  3.4217811815223396e-02 -1.2868783979325167e+00 0.0000000000000000e+00  1.1043018366980981e-01 -4.5052101876028983e-01 0.0000000000000000e+00  -1.0036654973586993e-01 1.4969326861120713e+00 0.0000000000000000e+00  4.2283185562801889e-02 -1.3500801549772001e+00 0.0000000000000000e+00  -1.2864184339280155e-02 -1.4168440335452097e+00 0.0000000000000000e+00  4.1955854275911683e-02 1.0581008684843793e+00 0.0000000000000000e+00  1.9992175754017889e-03 2.6409137245405798e-04 0.0000000000000000e+00  2.4408490469690512e-03 -9.7949266983182585e-04 0.0000000000000000e+00  -6.4926271274831507e-04 -8.8613369963498384e-04 0.0000000000000000e+00  1.7605664905242263e-02 4.6114532095051775e-01 0.0000000000000000e+00  3.4450710818513916e-03 -1.0248239997423987e+00 0.0000000000000000e+00  1.4111260638971221e-01 -1.3996704686534283e+00 0.0000000000000000e+00  2.0517166606646262e-01 -9.6014331112456197e-01 0.0000000000000000e+00  5.1839230047184847e-04 -9.1898339694513665e-04 0.0000000000000000e+00  1.7631300007918990e-01 2.0681403130802924e+00 0.0000000000000000e+00  5.5130921044413905e-01 -1.3767635007532084e+00 0.0000000000000000e+00  3.6990045140893613e-01 -2.6453829425833020e-01 0.0000000000000000e+00  -1.5864787978426964e-01 3.5064926072438174e-01 0.0000000000000000e+00  -8.5367425343668243e-02 1.6846722971825363e+00 0.0000000000000000e+00  8.7019314996452421e-04 -3.0092442258253986e-04 0.0000000000000000e+00  -1.3644610931757689e-03 -2.3241279383967486e-04 0.0000000000000000e+00  1.1333322327338378e-03 -4.3784402613182105e-05 0.0000000000000000e+00  -6.1016507443692708e-04 -5.0794089088342521e-04 0.0000000000000000e+00  -8.9314468013769618e-04 -6.2067169118978818e-04 0.0000000000000000e+00  -6.0555078061514701e-03 -7.9846481708416685e-04 0.0000000000000000e+00  6.1167535937815506e-04 -5.5157504218512844e-04 0.0000000000000000e+00  -1.3097977987761305e-02 -7.8163767416401042e-01 0.0000000000000000e+00  -1.5233559218738495e-02 -1.6981472667684598e+00 0.0000000000000000e+00  4.1349410885432203e-02 -8.9170741161660161e-01 0.0000000000000000e+00  -4.7024068351832975e-02 1.0734075229889442e+00 0.0000000000000000e+00  -7.0598233425817579e-03 -1.5615105255719353e+00 0.0000000000000000e+00  -2.2953870077610496e-02 6.0460574207321549e-01 0.0000000000000000e+00  -1.0977207468735308e+00 -2.4596487849872928e-01 0.0000000000000000e+00  -2.7592657532276932e-01 -7.8796464524069665e-01 0.0000000000000000e+00  2.8643659123432360e-02 1.4567681851343878e-01 0.0000000000000000e+00  5.3342880014343320e-02 -1.7283173026698223e-01 0.0000000000000000e+00  -5.9398853529002527e-01 -9.4977422293922154e-01 0.0000000000000000e+00  -9.7860585028466285e-02 1.5436385122988359e+00 0.0000000000000000e+00  3.0524567816360041e-02 -5.3550066990863010e-01 0.0000000000000000e+00  6.3455637189786227e-05 -2.6566266620572568e-04 0.0000000000000000e+00  3.2936260879119974e-06 7.0439266135358893e-06 0.0000000000000000e+00  -5.7969689708516695e-02 1.6734940137612579e+00 0.0000000000000000e+00  1.6127946158420542e-01 1.2627777892577807e-01 0.0000000000000000e+00  -2.1968600867603960e-01 -1.4154007688498920e+00 0.0000000000000000e+00  -3.3983814123802504e-02 1.0329186667809274e+00 0.0000000000000000e+00  5.1353132480908636e-01 -1.2362588921279033e-01 0.0000000000000000e+00  5.8799978405329439e-02 -7.9915550697090953e-01 0.0000000000000000e+00  -1.8722362990380732e-02 -1.5332591984771082e+00 0.0000000000000000e+00  -7.3528547655108883e-02 1.4121835515760741e+00 0.0000000000000000e+00  -5.5601422811009235e-03 1.9362442078188766e+00 0.0000000000000000e+00  4.3226980211419609e-02 -8.6147180360305320e-01 0.0000000000000000e+00  1.7798077348315472e-03 -1.4573375304796132e+00 0.0000000000000000e+00  8.2461604835135538e-02 4.3956354995243085e-01 0.0000000000000000e+00  -3.8944568549355969e-02 -9.7127172228703340e-01 0.0000000000000000e+00  2.7971758315920414e-02 -9.3261053336044708e-01 0.0000000000000000e+00  5.1805315861721997e-02 -6.9090081071869835e-01 0.0000000000000000e+00  -1.5741327631576124e-01 -1.4391203212338657e+00 0.0000000000000000e+00  9.2781832074821227e-02 -8.3608492212140817e-01 0.0000000000000000e+00  -4.1988473606422945e-02 1.3290334153075376e+00 0.0000000000000000e+00  1.7912441090901407e-01 1.3090055707786206e+00 0.0000000000000000e+00  1.0088741078838439e-02 -1.5399440829129394e+00 0.0000000000000000e+00  6.4050642272643976e-03 -8.4002323695340364e-01 0.0000000000000000e+00  2.7786508314275194e-02 3.8017392885859730e-01 0.0000000000000000e+00  9.7868023353912781e-01 1.9158760143257760e+00 0.0000000000000000e+00  1.1518142036452821e+00 -5.8866756349394023e-01 0.0000000000000000e+00  -4.8704776206922601e-01 -2.5939539271751189e-01 0.0000000000000000e+00  -1.5862176726388205e-01 1.2153080638489189e+00 0.0000000000000000e+00  -4.1345014240251898e-01 1.6006721305074327e+00 0.0000000000000000e+00  -1.4041919371682945e-01 -1.4918587811544461e+00 0.0000000000000000e+00  9.7075927295392841e-02 7.2161077166545173e-01 0.0000000000000000e+00  -1.4903376944696750e-01 -9.5167531141796491e-01 0.0000000000000000e+00  7.3556435142752744e-02 -9.0111237417078149e-01 0.0000000000000000e+00  -1.2145580241951424e+00 6.9759497455193675e-01 0.0000000000000000e+00  5.0539481910080876e-02 4.5617217441480207e-01 0.0000000000000000e+00  6.5158473388732985e-02 9.0251674024792627e-01 0.0000000000000000e+00  -4.5879186368202776e-02 -1.4169537909627472e+00 0.0000000000000000e+00  -8.9688765060459870e-03 -1.3282391976236052e+00 0.0000000000000000e+00  2.3700503664076885e-02 -7.2166026030744668e-01 0.0000000000000000e+00  2.6369436482947272e-02 8.9415780696645919e-01 0.0000000000000000e+00  2.0828699275180870e-02 -8.5055422741680198e-01 0.0000000000000000e+00  3.7746125244356617e-02 -3.7570557735524995e-01 0.0000000000000000e+00  -1.1156472901685369e-01 2.0823801444126300e+00 0.0000000000000000e+00  -5.8888779649369304e-02 -1.3995341972054374e+00 0.0000000000000000e+00  1.2005109492423376e-02 1.7626847310323097e+00 0.0000000000000000e+00  -7.4517692233533128e-01 1.2509867824065681e+00 0.0000000000000000e+00  2.4940225315727024e-02 6.5092197452629774e-01 0.0000000000000000e+00  3.9261102142499094e-01 1.7936779234475739e+00 0.0000000000000000e+00  -3.2705294395279985e-02 1.1799866017190310e+00 0.0000000000000000e+00  1.0039742127966086e-02 -1.1516883064742891e+00 0.0000000000000000e+00  1.0227407920981178e-01 -8.4983164464433547e-01 0.0000000000000000e+00  -9.8088855086097285e-02 -1.4464439886175904e+00 0.0000000000000000e+00  -5.1743624948381056e-02 -1.7016335128950681e+00 0.0000000000000000e+00  -1.3222542990483687e-02 -8.1572252347697383e-01 0.0000000000000000e+00  9.8539334525526934e-02 -1.3154591342006847e+00 0.0000000000000000e+00  1.4988423063998030e-01 -1.6219374232852241e-01 0.0000000000000000e+00  3.0364285171392117e-02 -1.1772841038904347e+00 0.0000000000000000e+00  -1.3767215924764054e-01 1.5188005662799242e+00 0.0000000000000000e+00  -3.3069347752048291e-02 1.4470189066080439e+00 0.0000000000000000e+00  4.5316436449024264e-02 -1.1503421746584239e+00 0.0000000000000000e+00  1.4277737945615425e-02 -6.8197300472901456e-01 0.0000000000000000e+00  2.8191517429776804e-02 -1.2246883642553819e+00 0.0000000000000000e+00  -7.1437717515154070e-02 1.3771221165172838e+00 0.0000000000000000e+00  2.8848340745659201e-01 -1.8517381454212511e-01 0.0000000000000000e+00  -3.4710469381318831e-02 -5.2395726824003108e-01 0.0000000000000000e+00  2.3729274515237744e-01 -6.7861104266448558e-01 0.0000000000000000e+00  -1.9003477444998440e-01 1.5771027340594406e+00 0.0000000000000000e+00  -2.7304463795185988e-02 -1.3660878598643242e+00 0.0000000000000000e+00  -8.1579123925550523e-01 2.1718241590641316e+00 0.0000000000000000e+00  9.1184738359469872e-02 1.4883891674922070e+00 0.0000000000000000e+00  6.5287250043924254e-04 -6.4284502562600909e-04 0.0000000000000000e+00  8.4427709264739137e-02 -1.2317609072000122e+00 0.0000000000000000e+00  -3.4248235732663754e-04 -1.7623401240217593e+00 0.0000000000000000e+00  4.3148540685587344e-01 -1.2201311975810294e+00 0.0000000000000000e+00  1.7961661798141379e-01 -2.5603052041070123e-01 0.0000000000000000e+00  -7.8353465709033517e-04 -6.2951782479433527e-04 0.0000000000000000e+00  -2.0681377871748283e-01 -1.1297228019799421e+00 0.0000000000000000e+00  4.9762897046096686e-04 4.3283808789931359e-04 0.0000000000000000e+00  2.5242594945294644e-01 4.2276043915913519e-01 0.0000000000000000e+00  1.7151675365636909e-03 -6.9276332383053202e-05 0.0000000000000000e+00  -4.5767636224545110e-04 -8.4615303490676833e-04 0.0000000000000000e+00  -1.0230059812844124e-01 -1.1792802509858652e-01 0.0000000000000000e+00  9.8024821781462507e-03 -1.5652698443779919e-02 0.0000000000000000e+00  -9.5515863614418911e-02 1.4283151604884352e+00 0.0000000000000000e+00  -6.7863402648222715e-02 -1.0953790148229927e+00 0.0000000000000000e+00  5.7842730256419126e-03 -7.1713131562209298e-01 0.0000000000000000e+00  -8.4533077264455955e-02 1.6891640953193325e+00 0.0000000000000000e+00  5.4674333657101427e-02 1.6803236931281271e+00 0.0000000000000000e+00  1.3225743886083748e-02 3.7125315504656459e-01 0.0000000000000000e+00  1.3453665975364851e-02 1.7891981782984205e+00 0.0000000000000000e+00  1.4542854930966211e-02 -1.2741934910915459e-01 0.0000000000000000e+00  1.9962195586498956e-02 -1.4590720487588822e+00 0.0000000000000000e+00  2.1657731561453536e-01 1.6157464675512940e+00 0.0000000000000000e+00  7.8320248203408216e-01 -3.2124943143767687e-01 0.0000000000000000e+00  2.6811047770739016e-01 -4.2234495296965641e-01 0.0000000000000000e+00  1.3627772683619369e-02 -1.0065710056702379e+00 0.0000000000000000e+00  -1.0726047930442618e-02 1.7337555863139360e+00 0.0000000000000000e+00  6.6551911209935775e-03 1.1650010945524283e+00 0.0000000000000000e+00  -1.5406095422661406e-02 -1.0508225332491656e+00 0.0000000000000000e+00  2.0522092367758163e-01 1.4282134555346175e+00 0.