<?xml version="1.0"?>
<VTKFile type="UnstructuredGrid"  version="0.1"  >
<UnstructuredGrid>
<Piece  NumberOfPoints="4835" NumberOfCells="9296">
<Points>
<DataArray  type="Float64"  NumberOfComponents="3"  format="ascii">0 1.5 0  -0 0.1307014797437256 0  0.01134725726173103 0.1483581566929452 0  0.04283342385313163 0.181379897845022 0  0.08000000000000007 0.2078460969082653 0  0.1215036888038188 0.2268001964915204 0  0.1658444388144116 0.2375571460514239 0  0.2114196597976982 0.2397281614039219 0  0.2565821445222626 0.23323477639765 0  0.2996996031204527 0.2183116788850844 0  0.3392136582970876 0.1954982284920806 0  0.3736961691452169 0.1656189627557069 0  0.4019008478794835 0.1297537961893434 0  0.4059948616314525 0.1218125174167552 0  0.4254856317806581 0.1498156710261111 0  0.4592156240140376 0.1818784194956707 0  0.498709345141744 0.2064950441012706 0  0.5423499175804942 0.222657737339227 0  0.588350691167096 0.2297047966493422 0  0.6348283888260526 0.2273477145954656 0  0.6798802081543086 0.2156829903938285 0  0.7216617223752013 0.1951881792237927 0  0.7584623913874079 0.1667023410626976 0  0.7879811633353602 0.1323170874919288 0  0.8152477706948351 0.1684239109116393 0  0.849341340905186 0.1995043068200599 0  0.8885654110558655 0.2237908228387656 0  0.9315842524819793 0.2404564107932048 0  0.9769329101341745 0.2489335440737586 0  1.023067089865825 0.2489335440737586 0  1.068415747518021 0.2404564107932048 0  1.111434588944135 0.2237908228387656 0  1.150658659094814 0.1995043068200599 0  1.184752229305165 0.1684239109116393 0  1.212554283932403 0.1316080407193389 0  1.233118057351089 0.09031041654678823 0  1.245743274920975 0.04593737945414259 0  1.25 0 0  1.36108673858246 0 0  1.36108673858246 0.02281345039300389 0  1.369721686332521 0.06761581364194322 0  1.386679492322819 0.1099743652145785 0  1.411347257261731 0.1483581566929452 0  1.442833423853132 0.181379897845022 0  1.48 0.2078460969082653 0  1.521503688803819 0.2268001964915204 0  1.565844438814412 0.2375571460514239 0  1.611419659797698 0.2397281614039219 0  1.656582144522263 0.23323477639765 0  1.699699603120453 0.2183116788850844 0  1.739213658297088 0.1954982284920806 0  1.765497292517293 0.1727233297951148 0  1.79 0.1905255888325765 0  1.832016261237511 0.2092324335849338 0  1.877003738081116 0.2187948169810202 0  1.922996261918884 0.2187948169810201 0  1.967983738762488 0.2092324335849338 0  2.01 0.1905255888325765 0  2.047208733398949 0.1634918616050267 0  2.077983738762488 0.1293127555043441 0  2.087980221556173 0.1119983394086949 0  2.111347257261731 0.1483581566929452 0  2.142833423853131 0.181379897845022 0  2.18 0.2078460969082653 0  2.221503688803819 0.2268001964915204 0  2.265844438814411 0.2375571460514239 0  2.311419659797698 0.2397281614039219 0  2.356582144522263 0.23323477639765 0  2.399699603120453 0.2183116788850844 0  2.439213658297088 0.1954982284920806 0  2.457172785224357 0.179936556425434 0  2.459215624014038 0.1818784194956707 0  2.498709345141744 0.2064950441012706 0  2.542349917580494 0.222657737339227 0  2.588350691167096 0.2297047966493422 0  2.634828388826053 0.2273477145954656 0  2.679880208154309 0.2156829903938285 0  2.721661722375202 0.1951881792237927 0  2.758462391387408 0.1667023410626976 0  2.788775591477674 0.1313916894718022 0  2.811360296672653 0.09070184667606328 0  2.825291886488074 0.04629865962039181 0  2.83 0 0  3 0 0  3 1.5 0  0 0.8023345134541607 0  0.4157402467060553 0.1358140942214332 0  3 0.75 0  1.5 1.5 0  0 0.4665179965989431 0  3 0.375 0  0 0.2986097381713344 0  0 0.21465560895753 0  0 0.1726785443506278 0  0 0.1516900120471767 0  2.25 1.5 0  0.75 1.5 0  1.169989811679434 0.9093651732355621 0  1.875 0.9142758100523694 0  0.5779365036100435 0.9330077223331824 0  2.43246936225428 0.7976868957014953 0  3 1.125 0  2.625 1.5 0  0.375 1.5 0  0 1.15116725672708 0  1.449253057879235 0.6213873587688492 0  0.7697361971202799 0.5943793911944208 0  0.3630076616442724 0.6080350564914153 0  2.069570984533324 0.5812833454367354 0  1.875 1.5 0  1.125 1.5 0  2.4375 1.173854331507092 0  0.8831005780031504 1.150004411874495 0  1.52207987625039 0.9714054497350916 0  2.0625 1.207137905026185 0  1.107793318688589 0.5766433232347881 0  1.3125 1.2274095306559 0  2.729985961523573 0.9375 0  2.711750443384031 0.5625 0  1.6875 1.243073622519403 0  1.760894209596057 0.6242614373612321 0  0.2643049832376852 0.9767508850906206 0  0.4566194854768236 1.209399638766609 0  2.728217267602858 1.228217267602858 0  2.374499195658668 0.518153287180279 0  2.169650674143702 0.9320836008992801 0  0.8550719231757007 0.8663457099410541 0  1.303567858855371 0.4078893824383345 0  0.2133194436665546 1.297827371069245 0  0.5308017499037517 0.4517023193912283 0  1.083077097725883 1.270382833575872 0  0.6830238102386342 1.274223132985906 0  2.250983943328481 0.6895458766515071 0  1.81089184968521 0.4192208869708923 0  1.679274712803154 0.8238291020339636 0  1.5785148524717 0.4510287526682343 0  0 0.6344262550265519 0  0.2138866804674432 0.765685327335986 0  0.5683532856219899 0.6602211278972628 0  0.9375 1.5 0  0.93201471049342 0.4568525359126817 0  1.262687644113192 0.7198627504483751 0  0.4154000952342595 0.8069446327163143 0  0.2139559556345817 0.4540330649264536 0  2.06977986811652 0.3813318272583126 0  0.7200651071201811 0.4061566188086219 0  1.932157822851692 0.7243325602448901 0  0.9441947922338874 0.689010158618046 0  3 1.3125 0  2.8125 1.5 0  0.5625 1.5 0  1.865575888969794 1.126762336039809 0  1.691368628814911 1.054521333692312 0  2.243682835689564 1.11932177110543 0  2.294933652681559 1.30886281903233 0  2.4375 1.5 0  2.385653526545621 0.9864303388879195 0  2.560603055863368 1.320052196970997 0  2.605098352881707 1.08210421072607 0  2.797310903081369 0.7462827406561878 0  1.497248537655819 1.30111187331848 0  1.6875 1.5 0  3 0.5625 0  3 0.9375 0  1.3125 1.5 0  2.0625 1.5 0  3 0.1875 0  0.1875 1.5 0  0.9978323986844071 0.9954535003819682 0  0.7455388243606953 1.020382929522352 0  1.904625246064701 1.312514164033404 0  1.15622562020362 1.097022204090454 0  1.332774827327096 1.015638362851981 0  2.617489052932561 0.7904306825848915 0  2.798834931624827 0.3810601956207291 0  2.518702939674024 0.6340258449062608 0  1.42862153170688 0.8082655083169574 0  2.016051725629557 1.02698392558818 0  2.557580898838836 0.4303899543284488 0  0.9143579924460792 1.324371521638632 0  0.6907201107072946 0.792483910827579 0  0 1.32558362836354 0  0 0.9767508850906206 0  0.6046140448732628 1.120294499938289 0  1.129353874055204 0.4037183319394277 0  2.240578803971554 0.4086758810341738 0  1.544887400155686 1.138911442832316 0  2.828734594747712 1.083464790593587 0  0.401358428169992 0.3487630281226344 0  0.1737226743516005 1.126953194380642 0  1.219293394173851 1.36370476532795 0  2.095593203128485 0.7438044944874065 0  1.099947866649755 0.7404984974094087 0  0.4225987016856009 0.9654760294046846 0  1.265404984472296 0.5615537191035901 0  1.908099381276504 0.55154028811489 0  1.605233217264331 0.6055204891939014 0  0.2070403235706232 0.6098576665994301 0  0.46875 1.369568887475175 0  2.529999076220762 0.9220559311443081 0  0.3296306516835505 1.118561581461605 0  2.136891098712708 1.353568952513092 0  0.1250262355603041 0.8895426992723907 0  2.286468869522623 0.8363516131379349 0  2.03024950667879 0.8782110935537075 0  2.71875 1.380113023166798 0  2.851157149000174 1.312122703709591 0  2.855875221692015 0.6072101925796368 0  1.766081959310164 1.371536811259701 0  2.417227117459742 0.3724437385102629 0  1.365276810157265 1.363519047380362 0  1.451310499971155 0.3640091006357036 0  2.211012611580202 0.5503989260541815 0  1.306789156675977 0.2570819477057019 0  2.872418607762505 0.256220469598872 0  2.896902016958361 0.84375 0  0.6487095286926469 0.5256523827174592 0  1.021477811485347 1.13286821063065 0  1.622350554793597 1.371881362989231 0  1.297557547403682 0.854343314165958 0  0.5529398034156436 0.7974238691464364 0  1.000783388185185 0.848708117631217 0  0.8152141294141361 0.735251676415229 0  2.383386472338196 0.654760318649699 0  1.031024064601143 1.39833771698851 0  1.812756223744312 0.7919737740986065 0  2.902150447032281 0.46875 0  1.558478314279628 0.7430881247578319 0  2.428095049619715 1.306700780290589 0  0.3309906154406318 1.369459454266083 0  0.117457385934373 0.361895434578648 0  0.4016309285334721 0.4812757168525422 0  1.933925005895449 0.3564723397117748 0  0.7479761182598068 1.155601287121883 0  0.09711831342126455 1.23837544254531 0  1.384025258268523 0.5094422387329146 0  2.188092881729461 1.235445092789212 0  0.116614462422195 1.388212202394539 0  0.5993432477835932 1.374610260003488 0  0.8731519049868882 1.022757560732678 0  0.1109021857268646 0.5275252102504697 0  1.703820060431276 0.5017282682884084 0  0.1118224159219883 0.6921053365242938 0  0.3267069786561488 1.244030051070764 0  2.878127312164905 0.9679608000003684 0  1.408346090782441 1.129729637108486 0  0.8047358880839842 0.3153623688883521 0  2.6405066654848 0.6664933064830099 0  0.4805702216488833 1.081724858267193 0  2.668084598222495 0.3562155878484895 0  2.138121375887776 1.052804865904559 0  1.96875 1.5 0  0.4891907154726056 0.5668366043293971 0  0.1473863332166031 1.0086557402922 0  2.558860649578938 1.196592162044302 0  1.717555244640741 0.3396535732296396 0  0.84375 1.5 0  0.7839942032523698 1.367093097528149 0  3 1.40625 0  2.484124862262918 1.060073596740424 0  3 1.21875 0  2.34375 1.5 0  0.8196209764267471 1.251369088398821 0  2.023202270335131 1.319214170177879 0  0.5721208504581607 1.233781127425821 0  1.984735816620384 0.462442873488178 0  0.6955333931194808 0.9118686683832042 0  1.19123464962554 1.213906677421382 0  0.8929803638185398 0.5752987850534633 0  1.566736823664244 0.8614646887466211 0  1.808684073906441 1.017786844668201 0  1.719105195888173 0.9374041347540488 0  1.671476674178274 0.70476362875428 0  1.218260709491531 0.330629071498573 0  2.839021519587611 1.19788439058923 0  0.5170070740021471 0.3361933937254621 0  1.393527188254162 0.91788143976
[...]
<PointData  Vectors="f_60"> 
<DataArray  type="Float64"  Name="f_60"  NumberOfComponents="3" format="ascii">-1.3561067230685728e-05 -3.8739275801638829e-04 0.0000000000000000e+00  -1.4111191339259379e-04 9.0580887803982149e-06 0.0000000000000000e+00  8.6549210107302746e-05 3.2317479585465459e-05 0.0000000000000000e+00  2.9737380998572907e-04 2.2125766645103361e-04 0.0000000000000000e+00  1.1764249904208241e-04 4.7849898770301112e-04 0.0000000000000000e+00  -4.1888438594305091e-04 5.6931002913434008e-04 0.0000000000000000e+00  3.5985124071120858e-05 7.8643649534370871e-04 0.0000000000000000e+00  6.3253538228846189e-04 6.9321677523546054e-04 0.0000000000000000e+00  -4.9355175021026636e-04 4.6080635706976803e-04 0.0000000000000000e+00  5.6111259605161616e-04 3.2554072444941119e-04 0.0000000000000000e+00  2.4719920485598949e-05 6.6154220672898158e-04 0.0000000000000000e+00  -3.8779335919785152e-04 9.1234232020088340e-04 0.0000000000000000e+00  1.9808278667409577e-04 5.2606155189756164e-05 0.0000000000000000e+00  2.2767755280347685e-04 1.2298016029675424e-04 0.0000000000000000e+00  7.4522659117445765e-05 4.1755119315841526e-04 0.0000000000000000e+00  -1.8366253578343418e-04 3.5711096088263117e-04 0.0000000000000000e+00  4.0332674372018805e-04 8.7307154423238280e-04 0.0000000000000000e+00  3.5747000262762173e-04 6.9966912401833855e-04 0.0000000000000000e+00  -3.1237718586935736e-04 3.8360804040626890e-04 0.0000000000000000e+00  5.3055608449838144e-04 2.6243164387644043e-04 0.0000000000000000e+00  -4.1551912037336188e-04 7.6804012899628652e-04 0.0000000000000000e+00  -3.7378402000109559e-05 6.6350467456410453e-04 0.0000000000000000e+00  -8.5758049961495473e-05 4.8713786414719896e-04 0.0000000000000000e+00  -2.3474592130322258e-04 1.3355055910888489e-04 0.0000000000000000e+00  3.1442749783831147e-04 7.2815743887188155e-04 0.0000000000000000e+00  5.0332219457026133e-04 7.8461389862887864e-04 0.0000000000000000e+00  -5.1222039530353066e-04 2.3305119326019589e-04 0.0000000000000000e+00  -1.5599209635719540e-04 2.5046729040839003e-04 0.0000000000000000e+00  -2.4949905507577779e-04 7.2509901724697435e-04 0.0000000000000000e+00  -1.9497993870280412e-04 6.6866965259177250e-04 0.0000000000000000e+00  4.9371773384710132e-04 5.7774362598807748e-04 0.0000000000000000e+00  -3.8702348622907714e-04 6.6605134891165735e-04 0.0000000000000000e+00  2.7096666019930308e-04 1.3753169565966481e-04 0.0000000000000000e+00  3.9767954857353611e-04 -2.1944320246399191e-04 0.0000000000000000e+00  -1.3157524676635335e-04 2.1751545967019453e-04 0.0000000000000000e+00  -4.7461208164833161e-04 6.6419794143411106e-04 0.0000000000000000e+00  1.0991163887267891e-04 8.7590708207611878e-04 0.0000000000000000e+00  3.2592630602589222e-04 6.7323828690227607e-04 0.0000000000000000e+00  1.7137193487559439e-04 2.9195761894290558e-04 0.0000000000000000e+00  1.2818979872447988e-04 3.9501640059688269e-04 0.0000000000000000e+00  3.9579634924195700e-05 4.7344009293824634e-04 0.0000000000000000e+00  -2.2897430809276447e-04 2.3162220963658488e-04 0.0000000000000000e+00  2.0179663096597499e-05 6.1055971964516333e-04 0.0000000000000000e+00  3.6898611924006923e-04 8.4361314932050377e-04 0.0000000000000000e+00  -3.2949643791924300e-04 3.3209098430612543e-04 0.0000000000000000e+00  -1.4833975240153164e-04 3.3036416459669785e-04 0.0000000000000000e+00  2.2639392345854078e-04 4.6718756606044259e-04 0.0000000000000000e+00  -6.7495422885690518e-04 7.9557554271550044e-04 0.0000000000000000e+00  6.2925028193404429e-04 6.4367234280644173e-04 0.0000000000000000e+00  2.7614507475453854e-04 5.4232885882236328e-04 0.0000000000000000e+00  -5.5387091494458422e-04 2.8319418516091623e-04 0.0000000000000000e+00  -2.6840429232513109e-04 3.3659268363120664e-04 0.0000000000000000e+00  -7.7502801968057329e-05 3.1964841724772700e-04 0.0000000000000000e+00  2.8471382601007124e-04 5.5201589489557571e-04 0.0000000000000000e+00  1.5799846725769322e-04 5.7004084908097649e-04 0.0000000000000000e+00  -6.0750468163832035e-05 7.5640563498211629e-04 0.0000000000000000e+00  5.5854678431567430e-04 5.0574874633628432e-04 0.0000000000000000e+00  -1.4039670199186046e-04 2.5388820604802838e-04 0.0000000000000000e+00  -4.0339534059958675e-04 2.6526858479616362e-04 0.0000000000000000e+00  -1.9383740939014587e-04 1.0405400853369623e-04 0.0000000000000000e+00  -9.6440890212115156e-06 5.8687226491073667e-05 0.0000000000000000e+00  -1.2471291152882228e-04 9.0390197985387193e-05 0.0000000000000000e+00  5.4975765918876781e-04 4.9072933158539767e-04 0.0000000000000000e+00  5.3517747565335672e-04 6.4941787820729335e-04 0.0000000000000000e+00  -4.8333531217457779e-04 4.3904804811093433e-04 0.0000000000000000e+00  3.0587701420420007e-04 7.0464989984193383e-04 0.0000000000000000e+00  3.3097428761509037e-04 6.4512456579429093e-04 0.0000000000000000e+00  -1.1667840472835871e-04 2.9841915501205648e-04 0.0000000000000000e+00  2.8705198281255012e-04 2.6758855636875562e-04 0.0000000000000000e+00  4.2921282166486266e-04 1.3021938228451938e-03 0.0000000000000000e+00  -1.1350276254913764e-03 7.4326891815982188e-04 0.0000000000000000e+00  1.4753745145272795e-03 5.5149715042264837e-04 0.0000000000000000e+00  4.2418209308624108e-04 9.1719078874580523e-04 0.0000000000000000e+00  5.0303715614824257e-04 5.4392553723506265e-04 0.0000000000000000e+00  5.8692524886128864e-04 3.9338757825040934e-04 0.0000000000000000e+00  2.0789367216654420e-04 -2.1370906713282764e-04 0.0000000000000000e+00  1.4724941737941279e-03 -9.3105198919122222e-04 0.0000000000000000e+00  -2.7251568139115143e-04 -5.6207793686271470e-04 0.0000000000000000e+00  -7.9741852250488684e-04 -3.1934513871484972e-05 0.0000000000000000e+00  2.7521797863872915e-04 -1.0999452708935318e-04 0.0000000000000000e+00  3.8015615934090737e-04 -1.7563432052197133e-04 0.0000000000000000e+00  1.5208325845344911e-04 7.3703540020790015e-06 0.0000000000000000e+00  1.3093053678847642e-06 8.8026397688579534e-06 0.0000000000000000e+00  -1.4315443762087637e-03 1.7860350621061180e-03 0.0000000000000000e+00  -1.9465712516466651e-03 2.1302959854083633e-03 0.0000000000000000e+00  -4.3470358314393468e-06 -1.2085277831987143e-05 0.0000000000000000e+00  2.0756435790796675e-04 2.2960911085557944e-04 0.0000000000000000e+00  2.8872881777832897e-04 -1.9175162030324658e-04 0.0000000000000000e+00  2.0479749235699548e-04 -5.4898390488514063e-04 0.0000000000000000e+00  2.2193991182814333e-06 5.2978174671869484e-05 0.0000000000000000e+00  -2.6632155631111571e-03 2.7486090619494019e-04 0.0000000000000000e+00  2.3777078304766522e-04 6.9522259129511574e-04 0.0000000000000000e+00  2.0084601219830890e-04 5.3112426087356646e-04 0.0000000000000000e+00  1.9537344805233134e-04 1.8932436663816852e-04 0.0000000000000000e+00  1.5569337046100623e-05 1.0234316028727462e-04 0.0000000000000000e+00  -1.3888676688954011e-04 -3.4509015359865402e-04 0.0000000000000000e+00  -1.9667900432120389e-05 -2.1244839428230281e-04 0.0000000000000000e+00  2.5173967887905119e-03 9.6310328387146005e-01 0.0000000000000000e+00  1.2450795421982555e-02 1.0804049857714369e-01 0.0000000000000000e+00  -2.0504152150285560e-03 1.0382180478947962e+00 0.0000000000000000e+00  -6.8616051856894523e-03 1.3053704042216256e+00 0.0000000000000000e+00  1.4900862522438498e-03 -1.2548024553661358e-04 0.0000000000000000e+00  -4.9481186521261906e-04 -5.8425162342696732e-04 0.0000000000000000e+00  8.1480914354299739e-05 -4.5133923405606482e-04 0.0000000000000000e+00  -1.5206056928512483e-05 1.3463830524209923e-05 0.0000000000000000e+00  3.5349625565412844e-02 5.7544747204019364e-01 0.0000000000000000e+00  3.8283722212584567e-02 -1.0890882682573795e+00 0.0000000000000000e+00  4.4554730725210490e-02 2.8857361837725520e-01 0.0000000000000000e+00  -4.5590910069703193e-02 1.0886007839810121e+00 0.0000000000000000e+00  5.5437222372663413e-05 -5.6923512454498172e-04 0.0000000000000000e+00  -2.4456594197358087e-04 -7.4386723323327595e-04 0.0000000000000000e+00  2.2657900677897716e-01 1.1731871568673595e+00 0.0000000000000000e+00  -4.4620747110219246e-02 1.1072125614793298e+00 0.0000000000000000e+00  -1.6550893587286501e-03 1.0917150801029734e+00 0.0000000000000000e+00  5.5935058920783924e-02 9.1824277367762863e-01 0.0000000000000000e+00  5.0778426717263757e-02 -4.1260955438391422e-01 0.0000000000000000e+00  -4.2956952051927073e-02 -8.2568472744318400e-01 0.0000000000000000e+00  1.7940165929231858e-01 1.7118916606471644e+00 0.0000000000000000e+00  -2.9622093316273557e-01 1.7742163464298673e+00 0.0000000000000000e+00  -2.4641938819135477e-02 -7.8798048473209448e-01 0.0000000000000000e+00  3.7395897199199155e-03 8.6098830402592141e-01 0.0000000000000000e+00  -4.1050144121334443e-03 8.2760880020343242e-01 0.0000000000000000e+00  -4.3170888432960047e-02 -1.1718341977125730e+00 0.0000000000000000e+00  5.5056464415118422e-01 1.6112849073081399e+00 0.0000000000000000e+00  -1.6734627602471669e-01 1.2966615169713536e+00 0.0000000000000000e+00  3.7788560997959228e-02 3.5524663944524809e-01 0.0000000000000000e+00  6.6261856357967708e-03 6.8864364862423666e-01 0.0000000000000000e+00  9.6860691711873226e-02 -6.3150244702469360e-01 0.0000000000000000e+00  -6.4876445322984033e-02 -2.7926849319301544e-01 0.0000000000000000e+00  7.6253443331025822e-02 8.6218136843493581e-02 0.0000000000000000e+00  -6.9555143743101483e-02 -8.7811289936384584e-01 0.0000000000000000e+00  -5.4203731571124930e-02 -2.1977861620597780e-01 0.0000000000000000e+00  -5.7763848087947940e-02 -9.2557237291653016e-01 0.0000000000000000e+00  -1.3895492172774323e-02 1.1680585005830426e+00 0.0000000000000000e+00  1.1139024893491617e-02 -9.0542220521970640e-01 0.0000000000000000e+00  5.5914684673448551e-03 -6.6237060307042059e-02 0.0000000000000000e+00  1.2452777960347325e-05 2.4591392290913982e-05 0.0000000000000000e+00  1.7816608649759921e-02 -3.1289515866819034e-01 0.0000000000000000e+00  3.6431569856816601e-02 8.9853293390919164e-01 0.0000000000000000e+00  6.7937280936313643e-04 -6.7229312002049172e-04 0.0000000000000000e+00  3.0187534827967124e-02 9.3814266571193794e-01 0.0000000000000000e+00  3.1731858080108317e-02 3.3260137392451128e-01 0.0000000000000000e+00  2.0966291812354539e-02 -8.9783988087473221e-01 0.0000000000000000e+00  7.1912155936856084e-02 -2.8683282320038445e-01 0.0000000000000000e+00  -7.0393446964652773e-02 1.0183406631577554e+00 0.0000000000000000e+00  2.9131760911644235e-02 -9.4783361983052472e-01 0.0000000000000000e+00  -7.0665568156521351e-03 -9.8050549724954950e-01 0.0000000000000000e+00  2.9807303006077045e-02 7.2228490327861439e-01 0.0000000000000000e+00  2.2629261433515617e-03 1.4887402006811550e-04 0.0000000000000000e+00  8.8894940482048864e-04 -6.5522292463659104e-04 0.0000000000000000e+00  -6.3233577743376226e-04 -7.4914520880760467e-04 0.0000000000000000e+00  1.4117847065848056e-02 3.1520465410535853e-01 0.0000000000000000e+00  9.8516865274911021e-04 -7.0869447210123837e-01 0.0000000000000000e+00  1.0356299030032436e-01 -9.6796872305657433e-01 0.0000000000000000e+00  1.4274921313669006e-01 -6.0813969899631182e-01 0.0000000000000000e+00  6.4244994097380605e-04 -7.6984912894321209e-04 0.0000000000000000e+00  1.1326920924248070e-01 1.4445375106600036e+00 0.0000000000000000e+00  3.8854588726109446e-01 -9.2515814216995684e-01 0.0000000000000000e+00  2.6646309285882758e-01 -7.9488193904059673e-02 0.0000000000000000e+00  -9.0575206166350578e-02 2.8774765819452330e-01 0.0000000000000000e+00  -5.5091502628180029e-02 1.1673705109547901e+00 0.0000000000000000e+00  6.7293413149410828e-04 -2.9733922010361657e-04 0.0000000000000000e+00  -5.0309205665105322e-04 -6.0531638587004795e-05 0.0000000000000000e+00  9.2459311745921480e-04 -4.7419774167171607e-05 0.0000000000000000e+00  -4.3651123553593916e-04 -4.3696257503058857e-04 0.0000000000000000e+00  -7.6752263196127246e-04 -5.7318728133381048e-04 0.0000000000000000e+00  -4.4987882718037723e-03 -6.3675468833831452e-04 0.0000000000000000e+00  4.9666294744987348e-04 -3.9139450779541578e-04 0.0000000000000000e+00  -1.0382461798511223e-02 -5.3697629263136915e-01 0.0000000000000000e+00  -1.3531178045851761e-02 -1.1755055180565346e+00 0.0000000000000000e+00  2.8777680312525897e-02 -6.1847809996997616e-01 0.0000000000000000e+00  -2.9981498625844018e-02 7.3293136476233867e-01 0.0000000000000000e+00  -7.8059274070995414e-03 -1.0790917672128570e+00 0.0000000000000000e+00  -1.7371280306864030e-02 4.0975883587815615e-01 0.0000000000000000e+00  -7.1490494442408092e-01 5.8313620459970877e-03 0.0000000000000000e+00  -1.7486147067172225e-01 -5.0924367531415038e-01 0.0000000000000000e+00  1.8295900677936065e-02 1.0878548141069010e-01 0.0000000000000000e+00  3.6093666582071367e-02 -1.0365669930199173e-01 0.0000000000000000e+00  -4.0538920977750059e-01 -7.3478206658633971e-01 0.0000000000000000e+00  -6.5159191307841799e-02 1.0823065350162355e+00 0.0000000000000000e+00  1.9940564666202986e-02 -3.7977092371422849e-01 0.0000000000000000e+00  3.3359732847723712e-05 -1.5600612321682320e-04 0.0000000000000000e+00  6.4442629181650230e-06 2.0414089667495706e-05 0.0000000000000000e+00  -3.5629893618180274e-02 1.1595096438377004e+00 0.0000000000000000e+00  1.1100156311707603e-01 1.2635052397683122e-01 0.0000000000000000e+00  -1.5213939595288453e-01 -9.8167919456738229e-01 0.0000000000000000e+00  -2.1224163222429204e-02 7.2198059602788367e-01 0.0000000000000000e+00  3.8154622107348302e-01 -1.6926433787429385e-01 0.0000000000000000e+00  4.0793760210072444e-02 -5.8256812960191151e-01 0.0000000000000000e+00  -1.4312541208378729e-02 -1.0684719584447191e+00 0.0000000000000000e+00  -5.1037728235370103e-02 9.9896311281556083e-01 0.0000000000000000e+00  -8.9412268364951249e-03 1.3433437259736052e+00 0.0000000000000000e+00  2.9267325465395788e-02 -5.8677089295922757e-01 0.0000000000000000e+00  -9.6135990614660909e-04 -1.0090891881123703e+00 0.0000000000000000e+00  5.8328564727532888e-02 2.7518396355781216e-01 0.0000000000000000e+00  -2.5975217872468748e-02 -6.6656007686302665e-01 0.0000000000000000e+00  1.7680073826697972e-02 -6.5186748518538196e-01 0.0000000000000000e+00  3.4270104097695445e-02 -4.6573941753366838e-01 0.0000000000000000e+00  -1.1412147501561223e-01 -1.0053387972245065e+00 0.0000000000000000e+00  8.1910759613378917e-02 -5.8701471898625557e-01 0.0000000000000000e+00  -2.5638565074680313e-02 9.2577666865396924e-01 0.0000000000000000e+00  1.2531494270859272e-01 8.8611670366543527e-01 0.0000000000000000e+00  5.3898799601364159e-03 -1.0683874068081911e+00 0.0000000000000000e+00  9.2467996837303987e-03 -5.7570438111430711e-01 0.0000000000000000e+00  1.7357811681026011e-02 2.7073015846932186e-01 0.0000000000000000e+00  7.1606557725656117e-01 1.3188558602172726e+00 0.0000000000000000e+00  8.2975696257896436e-01 -5.0831700899559207e-01 0.0000000000000000e+00  -3.0726574513308963e-01 -2.2393132055380652e-01 0.0000000000000000e+00  -1.0095713815141649e-01 8.3683423677475388e-01 0.0000000000000000e+00  -2.9290790636569153e-01 1.1792269657836314e+00 0.0000000000000000e+00  -9.8080425891668419e-02 -1.0340915769533998e+00 0.0000000000000000e+00  6.6758592297140790e-02 5.2092593817826627e-01 0.0000000000000000e+00  -1.0002768378201622e-01 -6.3373229658702612e-01 0.0000000000000000e+00  5.6982684380609536e-02 -6.6089092531102700e-01 0.0000000000000000e+00  -8.8733432691347480e-01 1.9619340254381115e-01 0.0000000000000000e+00  4.9724212605864924e-02 3.2791147529001036e-01 0.0000000000000000e+00  4.5050402299459315e-02 6.0870295552030151e-01 0.0000000000000000e+00  -3.4325911008546921e-02 -9.7207988729898354e-01 0.0000000000000000e+00  -3.6793141308850402e-03 -9.0087833743441592e-01 0.0000000000000000e+00  1.4651258764173296e-02 -5.0596704706087259e-01 0.0000000000000000e+00  1.9037780187300530e-02 6.2587517706756646e-01 0.0000000000000000e+00  1.3215605282639009e-02 -5.9293827384834197e-01 0.0000000000000000e+00  2.5238291782399086e-02 -2.5105092278094093e-01 0.0000000000000000e+00  -9.0137273563060935e-02 1.4397112698531813e+00 0.0000000000000000e+00  -3.7544595427945693e-02 -9.5438591839092402e-01 0.0000000000000000e+00  7.4002349968814440e-03 1.2212013700202107e+00 0.0000000000000000e+00  -5.2140560330690444e-01 6.3251710666733341e-01 0.0000000000000000e+00  1.7056064192577061e-02 4.4491049988169001e-01 0.0000000000000000e+00  2.7273212174318079e-01 1.1897953866726068e+00 0.0000000000000000e+00  -2.1569229229165099e-02 8.3982592894948782e-01 0.0000000000000000e+00  8.4192554406456819e-03 -8.1450495079761864e-01 0.0000000000000000e+00  6.7123121415007578e-02 -6.1695600444771548e-01 0.0000000000000000e+00  -6.8743441882302497e-02 -1.0072569743018025e+00 0.0000000000000000e+00  -3.8702080661726930e-02 -1.1779963336563108e+00 0.0000000000000000e+00  -1.1064046676229183e-02 -5.6204839864117973e-01 0.0000000000000000e+00  6.1107037924381102e-02 -9.0038496776556354e-01 0.0000000000000000e+00  1.0694631721495687e-01 -1.4955716564170002e-01 0.0000000000000000e+00  2.9044505133219652e-02 -8.0857525748671955e-01 0.0000000000000000e+00  -9.5890048098324202e-02 1.0661082544042926e+00 0.0000000000000000e+00  -1.9446550000432473e-02 9.9714236503151510e-01 0.0000000000000000e+00  2.7221477524606165e-02 -8.0611321916457124e-01 0.0000000000000000e+00  9.0489393249611454e-03 -4.6807535702975406e-01 0.0000000000000000e+00  1.7112819704932641e-02 -8.5400940856128504e-01 0.0000000000000000e+00  -4.4761296112111812e-02 9.6381035653619829e-01 0.0000000000000000e+00  2.2677895588030816e-01 -7.9034596340990443e-02 0.0000000000000000e+00  -2.5286606355688430e-02 -3.7310586063400147e-01 0.0000000000000000e+00  1.5470508045777528e-01 -4.5135766811633754e-01 0.0000000000000000e+00  -1.4895254387199700e-01 1.0332906278144578e+00 0.0000000000000000e+00  -2.0813043384317245e-02 -9.5352053954729499e-01 0.0000000000000000e+00  -5.7531833205541238e-01 1.4511697343215053e+00 0.0000000000000000e+00  6.2554618060014028e-02 1.0123831485622607e+00 0.0000000000000000e+00  4.5058232097609698e-04 -5.0016847250381467e-04 0.0000000000000000e+00  5.4538065644480070e-02 -8.3811818340237287e-01 0.0000000000000000e+00  -1.9757837001833757e-03 -1.2220693965728207e+00 0.0000000000000000e+00  3.1395296542559070e-01 -8.2296559620355259e-01 0.0000000000000000e+00  1.2012132349152435e-01 -1.6417158316140634e-01 0.0000000000000000e+00  -7.0171090146948047e-04 -5.5025393937760858e-04 0.0000000000000000e+00  -1.4078022736650117e-01 -8.0619774849579962e-01 0.0000000000000000e+00  1.3714152419633592e-03 1.0888437863149894e-04 0.0000000000000000e+00  1.8064941790095312e-01 2.2522284723327465e-01 0.0000000000000000e+00  1.7071131050352966e-03 -1.2192175734142841e-04 0.0000000000000000e+00  -5.5105958513614257e-04 -6.8503665118963409e-04 0.0000000000000000e+00  -6.9486213505060290e-02 -1.1037793367739208e-01 0.0000000000000000e+00  8.9660318367856141e-03 2.0022128629661124e-03 0.0000000000000000e+00  -6.0907294883151400e-02 9.7642453195508061e-01 0.0000000000000000e+00  -4.7611862999771486e-02 -7.7490104232903223e-01 0.0000000000000000e+00  3.0077270105058227e-03 -4.9707578744340669e-01 0.0000000000000000e+00  -5.3974303660333109e-02 1.1652117532532575e+00 0.0000000000000000e+00  3.7233985730945787e-02 1.1651326318783199e+00 0.0000000000000000e+00  9.4770667745886113e-03 2.5340828752770167e-01 0.0000000000000000e+00  1.0083079631571783e-02 1.2370815959558468e+00 0.0000000000000000e+00  8.9405538595416067e-03 -8.4470864219177655e-02 0.0000000000000000e+00  1.2228535213564420e-02 -1.0078062464483191e+00 0.0000000000000000e+00  1.4106132075094041e-01 1.0881657853818303e+00 0.0000000000000000e+00  5.7660773335449400e-01 -3.2560434783279907e-01 0.0000000000000000e+00  1.8012571941176564e-01 -2.5801279167246882e-01 0.0000000000000000e+00  6.8769850010050593e-03 -6.9546688003413104e-01 0.0000000000000000e+00  -4.3900592315075640e-03 1.1990493555265800e+00 0.0000000000000000e+00  6.3081390266659541e-03 8.0276029696852080e-01 0.0000000000000000e+00  -6.7756007190348565e-03 -7.4181236583990739e-01 0.0000000000000000e+00  1.2989002064539812e-01 9.9647344444374408e-01 0.000000