<?xml version="1.0"?>
<VTKFile type="UnstructuredGrid"  version="0.1"  >
<UnstructuredGrid>
<Piece  NumberOfPoints="4835" NumberOfCells="9296">
<Points>
<DataArray  type="Float64"  NumberOfComponents="3"  format="ascii">0 1.5 0  -0 0.1307014797437256 0  0.01134725726173103 0.1483581566929452 0  0.04283342385313163 0.181379897845022 0  0.08000000000000007 0.2078460969082653 0  0.1215036888038188 0.2268001964915204 0  0.1658444388144116 0.2375571460514239 0  0.2114196597976982 0.2397281614039219 0  0.2565821445222626 0.23323477639765 0  0.2996996031204527 0.2183116788850844 0  0.3392136582970876 0.1954982284920806 0  0.3736961691452169 0.1656189627557069 0  0.4019008478794835 0.1297537961893434 0  0.4059948616314525 0.1218125174167552 0  0.4254856317806581 0.1498156710261111 0  0.4592156240140376 0.1818784194956707 0  0.498709345141744 0.2064950441012706 0  0.5423499175804942 0.222657737339227 0  0.588350691167096 0.2297047966493422 0  0.6348283888260526 0.2273477145954656 0  0.6798802081543086 0.2156829903938285 0  0.7216617223752013 0.1951881792237927 0  0.7584623913874079 0.1667023410626976 0  0.7879811633353602 0.1323170874919288 0  0.8152477706948351 0.1684239109116393 0  0.849341340905186 0.1995043068200599 0  0.8885654110558655 0.2237908228387656 0  0.9315842524819793 0.2404564107932048 0  0.9769329101341745 0.2489335440737586 0  1.023067089865825 0.2489335440737586 0  1.068415747518021 0.2404564107932048 0  1.111434588944135 0.2237908228387656 0  1.150658659094814 0.1995043068200599 0  1.184752229305165 0.1684239109116393 0  1.212554283932403 0.1316080407193389 0  1.233118057351089 0.09031041654678823 0  1.245743274920975 0.04593737945414259 0  1.25 0 0  1.36108673858246 0 0  1.36108673858246 0.02281345039300389 0  1.369721686332521 0.06761581364194322 0  1.386679492322819 0.1099743652145785 0  1.411347257261731 0.1483581566929452 0  1.442833423853132 0.181379897845022 0  1.48 0.2078460969082653 0  1.521503688803819 0.2268001964915204 0  1.565844438814412 0.2375571460514239 0  1.611419659797698 0.2397281614039219 0  1.656582144522263 0.23323477639765 0  1.699699603120453 0.2183116788850844 0  1.739213658297088 0.1954982284920806 0  1.765497292517293 0.1727233297951148 0  1.79 0.1905255888325765 0  1.832016261237511 0.2092324335849338 0  1.877003738081116 0.2187948169810202 0  1.922996261918884 0.2187948169810201 0  1.967983738762488 0.2092324335849338 0  2.01 0.1905255888325765 0  2.047208733398949 0.1634918616050267 0  2.077983738762488 0.1293127555043441 0  2.087980221556173 0.1119983394086949 0  2.111347257261731 0.1483581566929452 0  2.142833423853131 0.181379897845022 0  2.18 0.2078460969082653 0  2.221503688803819 0.2268001964915204 0  2.265844438814411 0.2375571460514239 0  2.311419659797698 0.2397281614039219 0  2.356582144522263 0.23323477639765 0  2.399699603120453 0.2183116788850844 0  2.439213658297088 0.1954982284920806 0  2.457172785224357 0.179936556425434 0  2.459215624014038 0.1818784194956707 0  2.498709345141744 0.2064950441012706 0  2.542349917580494 0.222657737339227 0  2.588350691167096 0.2297047966493422 0  2.634828388826053 0.2273477145954656 0  2.679880208154309 0.2156829903938285 0  2.721661722375202 0.1951881792237927 0  2.758462391387408 0.1667023410626976 0  2.788775591477674 0.1313916894718022 0  2.811360296672653 0.09070184667606328 0  2.825291886488074 0.04629865962039181 0  2.83 0 0  3 0 0  3 1.5 0  0 0.8023345134541607 0  0.4157402467060553 0.1358140942214332 0  3 0.75 0  1.5 1.5 0  0 0.4665179965989431 0  3 0.375 0  0 0.2986097381713344 0  0 0.21465560895753 0  0 0.1726785443506278 0  0 0.1516900120471767 0  2.25 1.5 0  0.75 1.5 0  1.169989811679434 0.9093651732355621 0  1.875 0.9142758100523694 0  0.5779365036100435 0.9330077223331824 0  2.43246936225428 0.7976868957014953 0  3 1.125 0  2.625 1.5 0  0.375 1.5 0  0 1.15116725672708 0  1.449253057879235 0.6213873587688492 0  0.7697361971202799 0.5943793911944208 0  0.3630076616442724 0.6080350564914153 0  2.069570984533324 0.5812833454367354 0  1.875 1.5 0  1.125 1.5 0  2.4375 1.173854331507092 0  0.8831005780031504 1.150004411874495 0  1.52207987625039 0.9714054497350916 0  2.0625 1.207137905026185 0  1.107793318688589 0.5766433232347881 0  1.3125 1.2274095306559 0  2.729985961523573 0.9375 0  2.711750443384031 0.5625 0  1.6875 1.243073622519403 0  1.760894209596057 0.6242614373612321 0  0.2643049832376852 0.9767508850906206 0  0.4566194854768236 1.209399638766609 0  2.728217267602858 1.228217267602858 0  2.374499195658668 0.518153287180279 0  2.169650674143702 0.9320836008992801 0  0.8550719231757007 0.8663457099410541 0  1.303567858855371 0.4078893824383345 0  0.2133194436665546 1.297827371069245 0  0.5308017499037517 0.4517023193912283 0  1.083077097725883 1.270382833575872 0  0.6830238102386342 1.274223132985906 0  2.250983943328481 0.6895458766515071 0  1.81089184968521 0.4192208869708923 0  1.679274712803154 0.8238291020339636 0  1.5785148524717 0.4510287526682343 0  0 0.6344262550265519 0  0.2138866804674432 0.765685327335986 0  0.5683532856219899 0.6602211278972628 0  0.9375 1.5 0  0.93201471049342 0.4568525359126817 0  1.262687644113192 0.7198627504483751 0  0.4154000952342595 0.8069446327163143 0  0.2139559556345817 0.4540330649264536 0  2.06977986811652 0.3813318272583126 0  0.7200651071201811 0.4061566188086219 0  1.932157822851692 0.7243325602448901 0  0.9441947922338874 0.689010158618046 0  3 1.3125 0  2.8125 1.5 0  0.5625 1.5 0  1.865575888969794 1.126762336039809 0  1.691368628814911 1.054521333692312 0  2.243682835689564 1.11932177110543 0  2.294933652681559 1.30886281903233 0  2.4375 1.5 0  2.385653526545621 0.9864303388879195 0  2.560603055863368 1.320052196970997 0  2.605098352881707 1.08210421072607 0  2.797310903081369 0.7462827406561878 0  1.497248537655819 1.30111187331848 0  1.6875 1.5 0  3 0.5625 0  3 0.9375 0  1.3125 1.5 0  2.0625 1.5 0  3 0.1875 0  0.1875 1.5 0  0.9978323986844071 0.9954535003819682 0  0.7455388243606953 1.020382929522352 0  1.904625246064701 1.312514164033404 0  1.15622562020362 1.097022204090454 0  1.332774827327096 1.015638362851981 0  2.617489052932561 0.7904306825848915 0  2.798834931624827 0.3810601956207291 0  2.518702939674024 0.6340258449062608 0  1.42862153170688 0.8082655083169574 0  2.016051725629557 1.02698392558818 0  2.557580898838836 0.4303899543284488 0  0.9143579924460792 1.324371521638632 0  0.6907201107072946 0.792483910827579 0  0 1.32558362836354 0  0 0.9767508850906206 0  0.6046140448732628 1.120294499938289 0  1.129353874055204 0.4037183319394277 0  2.240578803971554 0.4086758810341738 0  1.544887400155686 1.138911442832316 0  2.828734594747712 1.083464790593587 0  0.401358428169992 0.3487630281226344 0  0.1737226743516005 1.126953194380642 0  1.219293394173851 1.36370476532795 0  2.095593203128485 0.7438044944874065 0  1.099947866649755 0.7404984974094087 0  0.4225987016856009 0.9654760294046846 0  1.265404984472296 0.5615537191035901 0  1.908099381276504 0.55154028811489 0  1.605233217264331 0.6055204891939014 0  0.2070403235706232 0.6098576665994301 0  0.46875 1.369568887475175 0  2.529999076220762 0.9220559311443081 0  0.3296306516835505 1.118561581461605 0  2.136891098712708 1.353568952513092 0  0.1250262355603041 0.8895426992723907 0  2.286468869522623 0.8363516131379349 0  2.03024950667879 0.8782110935537075 0  2.71875 1.380113023166798 0  2.851157149000174 1.312122703709591 0  2.855875221692015 0.6072101925796368 0  1.766081959310164 1.371536811259701 0  2.417227117459742 0.3724437385102629 0  1.365276810157265 1.363519047380362 0  1.451310499971155 0.3640091006357036 0  2.211012611580202 0.5503989260541815 0  1.306789156675977 0.2570819477057019 0  2.872418607762505 0.256220469598872 0  2.896902016958361 0.84375 0  0.6487095286926469 0.5256523827174592 0  1.021477811485347 1.13286821063065 0  1.622350554793597 1.371881362989231 0  1.297557547403682 0.854343314165958 0  0.5529398034156436 0.7974238691464364 0  1.000783388185185 0.848708117631217 0  0.8152141294141361 0.735251676415229 0  2.383386472338196 0.654760318649699 0  1.031024064601143 1.39833771698851 0  1.812756223744312 0.7919737740986065 0  2.902150447032281 0.46875 0  1.558478314279628 0.7430881247578319 0  2.428095049619715 1.306700780290589 0  0.3309906154406318 1.369459454266083 0  0.117457385934373 0.361895434578648 0  0.4016309285334721 0.4812757168525422 0  1.933925005895449 0.3564723397117748 0  0.7479761182598068 1.155601287121883 0  0.09711831342126455 1.23837544254531 0  1.384025258268523 0.5094422387329146 0  2.188092881729461 1.235445092789212 0  0.116614462422195 1.388212202394539 0  0.5993432477835932 1.374610260003488 0  0.8731519049868882 1.022757560732678 0  0.1109021857268646 0.5275252102504697 0  1.703820060431276 0.5017282682884084 0  0.1118224159219883 0.6921053365242938 0  0.3267069786561488 1.244030051070764 0  2.878127312164905 0.9679608000003684 0  1.408346090782441 1.129729637108486 0  0.8047358880839842 0.3153623688883521 0  2.6405066654848 0.6664933064830099 0  0.4805702216488833 1.081724858267193 0  2.668084598222495 0.3562155878484895 0  2.138121375887776 1.052804865904559 0  1.96875 1.5 0  0.4891907154726056 0.5668366043293971 0  0.1473863332166031 1.0086557402922 0  2.558860649578938 1.196592162044302 0  1.717555244640741 0.3396535732296396 0  0.84375 1.5 0  0.7839942032523698 1.367093097528149 0  3 1.40625 0  2.484124862262918 1.060073596740424 0  3 1.21875 0  2.34375 1.5 0  0.8196209764267471 1.251369088398821 0  2.023202270335131 1.319214170177879 0  0.5721208504581607 1.233781127425821 0  1.984735816620384 0.462442873488178 0  0.6955333931194808 0.9118686683832042 0  1.19123464962554 1.213906677421382 0  0.8929803638185398 0.5752987850534633 0  1.566736823664244 0.8614646887466211 0  1.808684073906441 1.017786844668201 0  1.719105195888173 0.9374041347540488 0  1.671476674178274 0.70476362875428 0  1.218260709491531 0.330629071498573 0  2.839021519587611 1.19788439058923 0  0.5170070740021471 0.3361933937254621 0  1.393527188254162 0.91788143976
[...]
<PointData  Vectors="f_60"> 
<DataArray  type="Float64"  Name="f_60"  NumberOfComponents="3" format="ascii">4.8938797075271520e-07 -4.0770495166124172e-04 0.0000000000000000e+00  -1.2637974738576277e-04 -2.2567809280700067e-05 0.0000000000000000e+00  1.0540689095312460e-04 1.5648216727347365e-05 0.0000000000000000e+00  2.5091563367442477e-04 1.8357313370836065e-04 0.0000000000000000e+00  8.1405132020173897e-05 3.7522892206223165e-04 0.0000000000000000e+00  -3.5226770057797402e-04 4.6320593286302029e-04 0.0000000000000000e+00  6.3695352217044910e-05 6.8814445459189702e-04 0.0000000000000000e+00  5.6889427920954385e-04 5.6094046024041696e-04 0.0000000000000000e+00  -3.5791221964943384e-04 3.3137447771024707e-04 0.0000000000000000e+00  4.0351689519860381e-04 2.4421902107010671e-04 0.0000000000000000e+00  -1.3886269048923623e-05 5.0913576931876307e-04 0.0000000000000000e+00  -3.0564005875671313e-04 7.4578698016739757e-04 0.0000000000000000e+00  3.0167461913829991e-04 -4.7242754143443249e-05 0.0000000000000000e+00  3.4866875541501982e-04 7.9232892328408988e-05 0.0000000000000000e+00  6.7880542239230182e-05 4.0114902065686847e-04 0.0000000000000000e+00  -2.0053084085562637e-04 3.1331945958992531e-04 0.0000000000000000e+00  3.6316082076601181e-04 7.6066156895132793e-04 0.0000000000000000e+00  2.9050928795541325e-04 5.3352485874719137e-04 0.0000000000000000e+00  -2.2769404154226170e-04 2.7078491352837847e-04 0.0000000000000000e+00  3.9059427377784357e-04 1.8468677086361972e-04 0.0000000000000000e+00  -3.6158775319255625e-04 6.3795137798061392e-04 0.0000000000000000e+00  1.5218992303949534e-05 5.7325662319393739e-04 0.0000000000000000e+00  -6.6332212066606518e-05 4.4906457177087825e-04 0.0000000000000000e+00  -2.7696609936591861e-04 1.5434975010121351e-04 0.0000000000000000e+00  2.6500576585568829e-04 6.6003962297853439e-04 0.0000000000000000e+00  4.1470283593615469e-04 5.9338612783647177e-04 0.0000000000000000e+00  -3.6987583324157793e-04 1.5937495298285715e-04 0.0000000000000000e+00  -8.4477835287578889e-05 1.9829605596656210e-04 0.0000000000000000e+00  -2.4956205458355073e-04 5.5642188472638068e-04 0.0000000000000000e+00  -1.5764385861312977e-04 5.5795628587506556e-04 0.0000000000000000e+00  4.3332437638654684e-04 4.8347248140125321e-04 0.0000000000000000e+00  -2.5085328516445351e-04 4.7710934164197396e-04 0.0000000000000000e+00  1.7553048420260940e-04 1.0637335994218950e-04 0.0000000000000000e+00  2.6140151559714980e-04 -1.5529036077149719e-04 0.0000000000000000e+00  -1.3283587925646756e-04 1.6264140888260292e-04 0.0000000000000000e+00  -3.7188032150481593e-04 5.1528207890484245e-04 0.0000000000000000e+00  1.1745042767762282e-04 7.3430205653438768e-04 0.0000000000000000e+00  2.8777874392278354e-04 5.9155090120703926e-04 0.0000000000000000e+00  1.5551321004175241e-04 3.1054470363293723e-04 0.0000000000000000e+00  9.2574727768242438e-05 3.7102243510075690e-04 0.0000000000000000e+00  3.0585528690881768e-06 3.5647176073476080e-04 0.0000000000000000e+00  -2.3280239234293047e-04 1.7601432420603165e-04 0.0000000000000000e+00  1.9915630903890561e-05 5.3980587330572328e-04 0.0000000000000000e+00  3.0982941880709547e-04 7.2078579760645630e-04 0.0000000000000000e+00  -2.2943805542258286e-04 2.4420279888017095e-04 0.0000000000000000e+00  -1.0187801426158424e-04 2.4451795591205370e-04 0.0000000000000000e+00  1.4773846115609634e-04 3.4437901755671581e-04 0.0000000000000000e+00  -5.7242200525924850e-04 6.5903112623059285e-04 0.0000000000000000e+00  5.2403215076981136e-04 5.4130198983862393e-04 0.0000000000000000e+00  2.6054626390081717e-04 4.1479062177725724e-04 0.0000000000000000e+00  -4.1985444943254017e-04 1.9086808093287544e-04 0.0000000000000000e+00  -1.9229521965922694e-04 2.9315482753606193e-04 0.0000000000000000e+00  -4.3209356919165060e-05 2.7190595485717881e-04 0.0000000000000000e+00  2.1480785586034971e-04 4.1495136752466033e-04 0.0000000000000000e+00  9.7376329255395745e-05 4.2301245778268465e-04 0.0000000000000000e+00  -5.7569711648168702e-05 6.4978134245441638e-04 0.0000000000000000e+00  4.9598656085200537e-04 4.4087094041257827e-04 0.0000000000000000e+00  -5.2014398100295154e-05 1.7022115649330545e-04 0.0000000000000000e+00  -3.1744607243603832e-04 1.9598373641805772e-04 0.0000000000000000e+00  -1.6682473819577058e-04 8.0005831766164642e-05 0.0000000000000000e+00  -1.0350289616372069e-05 4.7413649624507204e-05 0.0000000000000000e+00  -1.0484637708813820e-04 7.9006351850228690e-05 0.0000000000000000e+00  4.2361062786655876e-04 3.5575931016781985e-04 0.0000000000000000e+00  4.3292914907683635e-04 4.6030479499038724e-04 0.0000000000000000e+00  -4.4200021013524770e-04 3.3904638092409562e-04 0.0000000000000000e+00  2.3561288581618793e-04 5.9849921811697864e-04 0.0000000000000000e+00  3.5179968297011967e-04 5.3956209641405257e-04 0.0000000000000000e+00  -1.3532624792846008e-04 2.3893768459674766e-04 0.0000000000000000e+00  1.8610382312778025e-04 1.7503478605832595e-04 0.0000000000000000e+00  2.9856615670986839e-04 1.0701001455108894e-03 0.0000000000000000e+00  -8.0677228777003814e-04 6.9030148505511233e-04 0.0000000000000000e+00  1.4953551386493362e-03 5.2120885092145168e-04 0.0000000000000000e+00  3.9924484998474235e-04 7.4681188643898765e-04 0.0000000000000000e+00  2.9839075700003389e-04 4.2411795002573940e-04 0.0000000000000000e+00  4.8761516044057272e-04 3.3596634257024110e-04 0.0000000000000000e+00  1.2857359253289289e-04 -9.1301934081481216e-05 0.0000000000000000e+00  1.0608992829587484e-03 -7.8633493089027640e-04 0.0000000000000000e+00  -1.5958565301148368e-06 -7.5997124753064119e-04 0.0000000000000000e+00  -7.1530592458700728e-04 -9.6720302382207607e-05 0.0000000000000000e+00  2.5760621199596910e-05 -6.5968486275335253e-06 0.0000000000000000e+00  4.5774114558527198e-04 -3.1088178743065800e-04 0.0000000000000000e+00  2.8664113927020482e-04 -1.7242005782642310e-04 0.0000000000000000e+00  1.3738009957291381e-04 -6.0132795280354774e-05 0.0000000000000000e+00  -3.3683361914709407e-03 1.6196775553255632e-03 0.0000000000000000e+00  -4.4667946062954293e-04 1.6885611094707407e-03 0.0000000000000000e+00  -4.1490142429534730e-06 -1.5260799112915311e-05 0.0000000000000000e+00  2.7694898803769653e-04 1.9142661460044605e-04 0.0000000000000000e+00  2.7779704974551330e-04 -1.0951262591389315e-04 0.0000000000000000e+00  1.5457248563427551e-04 -5.0168014861505191e-04 0.0000000000000000e+00  4.8692562863737458e-06 4.9593460250314712e-05 0.0000000000000000e+00  -1.8500585498926422e-03 2.2263595592332257e-04 0.0000000000000000e+00  1.9029588488969835e-04 5.2990410244512323e-04 0.0000000000000000e+00  1.7565773756859129e-04 4.1500677010250362e-04 0.0000000000000000e+00  1.8622019246173951e-04 1.5782177815774472e-04 0.0000000000000000e+00  2.9862850693831814e-05 6.9661468670659352e-05 0.0000000000000000e+00  -8.2639432991039405e-05 -2.5316609569614012e-04 0.0000000000000000e+00  -3.4320611400753400e-05 -1.5170306919869012e-04 0.0000000000000000e+00  2.6440472418944477e-03 7.2616006925165055e-01 0.0000000000000000e+00  9.7213749070341315e-03 8.0378410003260736e-02 0.0000000000000000e+00  -6.3840358341800472e-04 7.8217685348262822e-01 0.0000000000000000e+00  -7.7005845229467067e-03 9.8671851242557762e-01 0.0000000000000000e+00  1.2983546425993787e-03 -9.8540455071998546e-05 0.0000000000000000e+00  -5.8346594548340383e-04 -4.7446498672154108e-04 0.0000000000000000e+00  1.4460820197804343e-04 -3.7534461461271484e-04 0.0000000000000000e+00  -1.6937203817988285e-05 2.4985000466797752e-05 0.0000000000000000e+00  2.5555396972275737e-02 4.3806331359326417e-01 0.0000000000000000e+00  2.8201962336810552e-02 -8.1969512915405729e-01 0.0000000000000000e+00  3.3318370187374984e-02 2.1116209613003872e-01 0.0000000000000000e+00  -3.6382442146323558e-02 8.1857756074230015e-01 0.0000000000000000e+00  8.8374481368880159e-05 -4.3824569362214646e-04 0.0000000000000000e+00  -2.0927695721363699e-04 -5.6373710883728502e-04 0.0000000000000000e+00  1.7042965812942545e-01 8.6482820295986518e-01 0.0000000000000000e+00  -3.2193832892767005e-02 8.3273221685350651e-01 0.0000000000000000e+00  -6.2254666338925507e-04 8.2315621628844227e-01 0.0000000000000000e+00  4.2701520303606036e-02 6.9647099441275606e-01 0.0000000000000000e+00  3.8453887626312862e-02 -3.0522496420353995e-01 0.0000000000000000e+00  -3.2677189635891273e-02 -6.1801597619694992e-01 0.0000000000000000e+00  1.2914705448160815e-01 1.2804111734161590e+00 0.0000000000000000e+00  -2.2982083907617090e-01 1.3565964268092350e+00 0.0000000000000000e+00  -1.8778676821522983e-02 -5.9563512174437416e-01 0.0000000000000000e+00  2.1315740367209074e-03 6.5031109742223248e-01 0.0000000000000000e+00  -2.3174472132431313e-03 6.2289206249553108e-01 0.0000000000000000e+00  -3.2929053140176641e-02 -8.8494386071296849e-01 0.0000000000000000e+00  4.1234905174581771e-01 1.1836511764038671e+00 0.0000000000000000e+00  -1.2922186516292095e-01 9.7234184997177964e-01 0.0000000000000000e+00  2.9156942827798727e-02 2.6418124928518444e-01 0.0000000000000000e+00  5.5343638044886281e-03 5.1965369844349996e-01 0.0000000000000000e+00  7.1435896725826439e-02 -4.8859614311709409e-01 0.0000000000000000e+00  -4.7510681361478325e-02 -2.1851315354066347e-01 0.0000000000000000e+00  5.6372470427325891e-02 7.3393032547817719e-02 0.0000000000000000e+00  -5.2698655486059190e-02 -6.6731079868139931e-01 0.0000000000000000e+00  -4.0483925898751640e-02 -1.5808346138023785e-01 0.0000000000000000e+00  -4.1577144948566500e-02 -6.9817944766808060e-01 0.0000000000000000e+00  -1.0593044172913298e-02 8.8213281984492142e-01 0.0000000000000000e+00  7.8942667636768930e-03 -6.8164094409308451e-01 0.0000000000000000e+00  3.6061649627367092e-03 -5.0423409012173452e-02 0.0000000000000000e+00  1.3791076939887045e-05 3.1490444381834497e-05 0.0000000000000000e+00  1.3320728797208883e-02 -2.3452027093585864e-01 0.0000000000000000e+00  2.7483897100974600e-02 6.8023294608106033e-01 0.0000000000000000e+00  6.0570256856905095e-04 -5.7114577374604803e-04 0.0000000000000000e+00  2.2056290504423030e-02 7.0470178749406076e-01 0.0000000000000000e+00  2.4026448825364852e-02 2.4641192525575406e-01 0.0000000000000000e+00  1.4955288718501533e-02 -6.7915819390415533e-01 0.0000000000000000e+00  5.2387535629011946e-02 -2.0966578242121484e-01 0.0000000000000000e+00  -5.4281685487005155e-02 7.6269074945885451e-01 0.0000000000000000e+00  2.1884126656380714e-02 -7.1850249947870404e-01 0.0000000000000000e+00  -4.9243173384303464e-03 -7.3899562686873310e-01 0.0000000000000000e+00  2.2626471342895773e-02 5.4153622429935611e-01 0.0000000000000000e+00  1.9780934661974606e-03 1.3883556810417782e-04 0.0000000000000000e+00  4.2420955739318585e-04 -4.6858755453262887e-04 0.0000000000000000e+00  -5.5740916379636908e-04 -6.3284805741826739e-04 0.0000000000000000e+00  1.1420742854253580e-02 2.3645641149824989e-01 0.0000000000000000e+00  5.1186984485717812e-04 -5.3394286982190420e-01 0.0000000000000000e+00  7.9995171224932243e-02 -7.2881584151091372e-01 0.0000000000000000e+00  1.0870849964250429e-01 -4.4106900295267559e-01 0.0000000000000000e+00  5.9198865231305535e-04 -6.4800340222305908e-04 0.0000000000000000e+00  8.3401100020527724e-02 1.0925398332747398e+00 0.0000000000000000e+00  2.9538466990798784e-01 -6.8395529518930587e-01 0.0000000000000000e+00  2.0294021555032865e-01 -2.7097502459599795e-02 0.0000000000000000e+00  -6.3651654919649817e-02 2.2835829071085617e-01 0.0000000000000000e+00  -4.0016894663176629e-02 8.8059988374318465e-01 0.0000000000000000e+00  4.9001879982685335e-04 -2.3782376909015109e-04 0.0000000000000000e+00  -3.1915006153240968e-04 -5.8342415173177384e-05 0.0000000000000000e+00  7.6683682929487693e-04 -5.9767466952534506e-05 0.0000000000000000e+00  -2.9293618711127866e-04 -3.2827188937394275e-04 0.0000000000000000e+00  -6.5957085563070393e-04 -5.2666062381652510e-04 0.0000000000000000e+00  -3.2367989469434871e-03 -4.9282815445873731e-04 0.0000000000000000e+00  3.5879037808338122e-04 -2.7616074189478900e-04 0.0000000000000000e+00  -8.1278450139397451e-03 -4.0369176674101115e-01 0.0000000000000000e+00  -1.0946454527653597e-02 -8.8630816199972218e-01 0.0000000000000000e+00  2.1775068469035590e-02 -4.6657350020244137e-01 0.0000000000000000e+00  -2.1795480533802508e-02 5.4963352146053246e-01 0.0000000000000000e+00  -6.6342835923097216e-03 -8.1301719447570031e-01 0.0000000000000000e+00  -1.3351224361546871e-02 3.0721591486603056e-01 0.0000000000000000e+00  -5.2724892860837624e-01 7.0380288125635987e-02 0.0000000000000000e+00  -1.2719882953411976e-01 -3.7207661205637671e-01 0.0000000000000000e+00  1.3300981632588650e-02 8.4243747255078411e-02 0.0000000000000000e+00  2.7058349641735615e-02 -7.3212146287131852e-02 0.0000000000000000e+00  -3.0258456323359001e-01 -5.7107865286127724e-01 0.0000000000000000e+00  -4.8105488809162072e-02 8.2004492171882393e-01 0.0000000000000000e+00  1.4628742827328577e-02 -2.8914434188305943e-01 0.0000000000000000e+00  1.7071193053458442e-05 -1.0105676230241885e-04 0.0000000000000000e+00  6.0843069810561838e-06 2.2666727466591014e-05 0.0000000000000000e+00  -2.5432894181525844e-02 8.7417613204347311e-01 0.0000000000000000e+00  8.3233354661289324e-02 1.0627711159654550e-01 0.0000000000000000e+00  -1.1485721268065739e-01 -7.3992337161546684e-01 0.0000000000000000e+00  -1.5157275739652847e-02 5.4635562628792644e-01 0.0000000000000000e+00  2.9476386127509352e-01 -1.4726492490493140e-01 0.0000000000000000e+00  3.0341585699157722e-02 -4.4828306201699836e-01 0.0000000000000000e+00  -1.0961893924475247e-02 -8.0794145351948665e-01 0.0000000000000000e+00  -3.7547554195235741e-02 7.6023086794679373e-01 0.0000000000000000e+00  -8.2423141963205628e-03 1.0139044510152500e+00 0.0000000000000000e+00  2.1839897080125879e-02 -4.3947626237015691e-01 0.0000000000000000e+00  -1.2634593472870843e-03 -7.6113961650326978e-01 0.0000000000000000e+00  4.3998776053939190e-02 1.9897424671277358e-01 0.0000000000000000e+00  -1.9501797125583503e-02 -5.0052791061909463e-01 0.0000000000000000e+00  1.2665114703884600e-02 -4.9300311624790810e-01 0.0000000000000000e+00  2.5211300327519136e-02 -3.4800376018309254e-01 0.0000000000000000e+00  -8.7433106679370584e-02 -7.6064985531799134e-01 0.0000000000000000e+00  6.6674577778094740e-02 -4.4471797866501539e-01 0.0000000000000000e+00  -1.8148135507949074e-02 6.9924144242387942e-01 0.0000000000000000e+00  9.4977735804958247e-02 6.6230245347736638e-01 0.0000000000000000e+00  3.5935393223374412e-03 -8.0644910980381601e-01 0.0000000000000000e+00  8.5851771370293196e-03 -4.3193819813559053e-01 0.0000000000000000e+00  1.2576636461111989e-02 2.0642061313540416e-01 0.0000000000000000e+00  5.4998572000618451e-01 9.8130394758151573e-01 0.0000000000000000e+00  6.3528853178517775e-01 -3.8923093058463754e-01 0.0000000000000000e+00  -2.2198369437887838e-01 -1.7751383232511289e-01 0.0000000000000000e+00  -7.2669893904373090e-02 6.2955345144535235e-01 0.0000000000000000e+00  -2.2361505630537201e-01 9.0689909596724860e-01 0.0000000000000000e+00  -7.2319649322793167e-02 -7.7859582049104481e-01 0.0000000000000000e+00  4.9857075769748072e-02 3.9912469308398846e-01 0.0000000000000000e+00  -7.4729071365010752e-02 -4.6991239871976381e-01 0.0000000000000000e+00  4.4668420638312896e-02 -5.1004483299135772e-01 0.0000000000000000e+00  -6.8115280831552649e-01 7.5528680700584966e-02 0.0000000000000000e+00  4.0457297089585467e-02 2.5309299913564887e-01 0.0000000000000000e+00  3.3799176694489716e-02 4.5421306369535591e-01 0.0000000000000000e+00  -2.6461870308686210e-02 -7.3036934147161836e-01 0.0000000000000000e+00  -3.1651921990946898e-03 -6.7470998979313512e-01 0.0000000000000000e+00  1.0531712070765670e-02 -3.8329936720546098e-01 0.0000000000000000e+00  1.4507483317274276e-02 4.7362063067592203e-01 0.0000000000000000e+00  9.5604298331264381e-03 -4.4818692488577028e-01 0.0000000000000000e+00  1.8740161590710954e-02 -1.8677212211142888e-01 0.0000000000000000e+00  -7.2111585203492742e-02 1.0853804583235864e+00 0.0000000000000000e+00  -2.6479824171451755e-02 -7.1646301402290280e-01 0.0000000000000000e+00  5.2849287070021707e-03 9.2098615503967796e-01 0.0000000000000000e+00  -3.9306244533115592e-01 4.1534236440066080e-01 0.0000000000000000e+00  1.2713657668851335e-02 3.3406718938717811e-01 0.0000000000000000e+00  2.0615672017300796e-01 8.7977679250588636e-01 0.0000000000000000e+00  -1.5255543821713263e-02 6.4073244668756069e-01 0.0000000000000000e+00  6.4492217504027926e-03 -6.2046752616388001e-01 0.0000000000000000e+00  4.9133646028166722e-02 -4.7348418639985707e-01 0.0000000000000000e+00  -5.2206824820956024e-02 -7.6146846296844650e-01 0.0000000000000000e+00  -2.9831736118095930e-02 -8.8810711289923061e-01 0.0000000000000000e+00  -8.5981531092744722e-03 -4.2379648136573400e-01 0.0000000000000000e+00  4.3764737775348020e-02 -6.7584845687880402e-01 0.0000000000000000e+00  8.1851109628895691e-02 -1.2350984040693405e-01 0.0000000000000000e+00  2.4565673969073686e-02 -6.0909359760963733e-01 0.0000000000000000e+00  -7.2070325425199325e-02 8.0910753774714816e-01 0.0000000000000000e+00  -1.3585184355737120e-02 7.5043773569949146e-01 0.0000000000000000e+00  1.9116615627271193e-02 -6.1091719234707231e-01 0.0000000000000000e+00  6.3255825466106974e-03 -3.5169001776141523e-01 0.0000000000000000e+00  1.2113339566119697e-02 -6.4610732583064201e-01 0.0000000000000000e+00  -3.2008131558242101e-02 7.2937781816023006e-01 0.0000000000000000e+00  1.7713458365050036e-01 -4.1957024703242446e-02 0.0000000000000000e+00  -1.9268403970062097e-02 -2.8421191573359034e-01 0.0000000000000000e+00  1.1364638165172404e-01 -3.3534528374235739e-01 0.0000000000000000e+00  -1.1702505872087368e-01 7.6196065971989269e-01 0.0000000000000000e+00  -1.6049111087192404e-02 -7.2134520567835236e-01 0.0000000000000000e+00  -4.3766964011118575e-01 1.0657132265995575e+00 0.0000000000000000e+00  4.7271184013831437e-02 7.5802106846249317e-01 0.0000000000000000e+00  3.1472479168260506e-04 -3.6910977474380303e-04 0.0000000000000000e+00  3.9835887949334688e-02 -6.2772627485705024e-01 0.0000000000000000e+00  -1.9805745974226211e-03 -9.2226212907414662e-01 0.0000000000000000e+00  2.4060658452951195e-01 -6.0958454758310199e-01 0.0000000000000000e+00  8.9498692323915816e-02 -1.2003233706134070e-01 0.0000000000000000e+00  -6.2024238970113325e-04 -4.7943255639123963e-04 0.0000000000000000e+00  -1.0451118795674368e-01 -6.1445979404502971e-01 0.0000000000000000e+00  1.8795586685085917e-03 -5.6641834199677443e-05 0.0000000000000000e+00  1.3830283225081030e-01 1.4990104616329514e-01 0.0000000000000000e+00  1.5457541803106244e-03 -9.1386461664766185e-05 0.0000000000000000e+00  -5.2918623228002774e-04 -5.6480529849491339e-04 0.0000000000000000e+00  -5.1746188092721523e-02 -9.1469942864285544e-02 0.0000000000000000e+00  7.9272760006418377e-03 5.8477533351141879e-03 0.0000000000000000e+00  -4.4143174902603007e-02 7.3253901925974618e-01 0.0000000000000000e+00  -3.6425544672760997e-02 -5.8899471499141631e-01 0.0000000000000000e+00  2.0097393063161838e-03 -3.7513805056473748e-01 0.0000000000000000e+00  -3.9236959438806597e-02 8.7723150787625470e-01 0.0000000000000000e+00  2.7836255036900313e-02 8.7877301794062446e-01 0.0000000000000000e+00  7.2439364832128069e-03 1.9007752987388735e-01 0.0000000000000000e+00  7.9056929881014502e-03 9.3229741656232368e-01 0.0000000000000000e+00  6.5119507890171457e-03 -6.2529859135602078e-02 0.0000000000000000e+00  8.6871295348218362e-03 -7.5895420315006157e-01 0.0000000000000000e+00  1.0410136172268926e-01 8.1086655798510754e-01 0.0000000000000000e+00  4.4487137333407228e-01 -2.6359174844733080e-01 0.0000000000000000e+00  1.3388907261180741e-01 -1.8498187019148365e-01 0.0000000000000000e+00  4.4600183452216096e-03 -5.2396622145711225e-01 0.0000000000000000e+00  -2.2310163938096812e-03 9.0382030648133449e-01 0.0000000000000000e+00  5.2526711408302515e-03 6.0379146175458853e-01 0.0000000000000000e+00  -3.5555042755407839e-03 -5.6417869377418461e-01 0.0000000000000000e+00  9.4388432567810002e-02 7.5302431419455051e-01 0.00