<?xml version="1.0"?>
<VTKFile type="UnstructuredGrid"  version="0.1"  >
<UnstructuredGrid>
<Piece  NumberOfPoints="4835" NumberOfCells="9296">
<Points>
<DataArray  type="Float64"  NumberOfComponents="3"  format="ascii">0 1.5 0  -0 0.1307014797437256 0  0.01134725726173103 0.1483581566929452 0  0.04283342385313163 0.181379897845022 0  0.08000000000000007 0.2078460969082653 0  0.1215036888038188 0.2268001964915204 0  0.1658444388144116 0.2375571460514239 0  0.2114196597976982 0.2397281614039219 0  0.2565821445222626 0.23323477639765 0  0.2996996031204527 0.2183116788850844 0  0.3392136582970876 0.1954982284920806 0  0.3736961691452169 0.1656189627557069 0  0.4019008478794835 0.1297537961893434 0  0.4059948616314525 0.1218125174167552 0  0.4254856317806581 0.1498156710261111 0  0.4592156240140376 0.1818784194956707 0  0.498709345141744 0.2064950441012706 0  0.5423499175804942 0.222657737339227 0  0.588350691167096 0.2297047966493422 0  0.6348283888260526 0.2273477145954656 0  0.6798802081543086 0.2156829903938285 0  0.7216617223752013 0.1951881792237927 0  0.7584623913874079 0.1667023410626976 0  0.7879811633353602 0.1323170874919288 0  0.8152477706948351 0.1684239109116393 0  0.849341340905186 0.1995043068200599 0  0.8885654110558655 0.2237908228387656 0  0.9315842524819793 0.2404564107932048 0  0.9769329101341745 0.2489335440737586 0  1.023067089865825 0.2489335440737586 0  1.068415747518021 0.2404564107932048 0  1.111434588944135 0.2237908228387656 0  1.150658659094814 0.1995043068200599 0  1.184752229305165 0.1684239109116393 0  1.212554283932403 0.1316080407193389 0  1.233118057351089 0.09031041654678823 0  1.245743274920975 0.04593737945414259 0  1.25 0 0  1.36108673858246 0 0  1.36108673858246 0.02281345039300389 0  1.369721686332521 0.06761581364194322 0  1.386679492322819 0.1099743652145785 0  1.411347257261731 0.1483581566929452 0  1.442833423853132 0.181379897845022 0  1.48 0.2078460969082653 0  1.521503688803819 0.2268001964915204 0  1.565844438814412 0.2375571460514239 0  1.611419659797698 0.2397281614039219 0  1.656582144522263 0.23323477639765 0  1.699699603120453 0.2183116788850844 0  1.739213658297088 0.1954982284920806 0  1.765497292517293 0.1727233297951148 0  1.79 0.1905255888325765 0  1.832016261237511 0.2092324335849338 0  1.877003738081116 0.2187948169810202 0  1.922996261918884 0.2187948169810201 0  1.967983738762488 0.2092324335849338 0  2.01 0.1905255888325765 0  2.047208733398949 0.1634918616050267 0  2.077983738762488 0.1293127555043441 0  2.087980221556173 0.1119983394086949 0  2.111347257261731 0.1483581566929452 0  2.142833423853131 0.181379897845022 0  2.18 0.2078460969082653 0  2.221503688803819 0.2268001964915204 0  2.265844438814411 0.2375571460514239 0  2.311419659797698 0.2397281614039219 0  2.356582144522263 0.23323477639765 0  2.399699603120453 0.2183116788850844 0  2.439213658297088 0.1954982284920806 0  2.457172785224357 0.179936556425434 0  2.459215624014038 0.1818784194956707 0  2.498709345141744 0.2064950441012706 0  2.542349917580494 0.222657737339227 0  2.588350691167096 0.2297047966493422 0  2.634828388826053 0.2273477145954656 0  2.679880208154309 0.2156829903938285 0  2.721661722375202 0.1951881792237927 0  2.758462391387408 0.1667023410626976 0  2.788775591477674 0.1313916894718022 0  2.811360296672653 0.09070184667606328 0  2.825291886488074 0.04629865962039181 0  2.83 0 0  3 0 0  3 1.5 0  0 0.8023345134541607 0  0.4157402467060553 0.1358140942214332 0  3 0.75 0  1.5 1.5 0  0 0.4665179965989431 0  3 0.375 0  0 0.2986097381713344 0  0 0.21465560895753 0  0 0.1726785443506278 0  0 0.1516900120471767 0  2.25 1.5 0  0.75 1.5 0  1.169989811679434 0.9093651732355621 0  1.875 0.9142758100523694 0  0.5779365036100435 0.9330077223331824 0  2.43246936225428 0.7976868957014953 0  3 1.125 0  2.625 1.5 0  0.375 1.5 0  0 1.15116725672708 0  1.449253057879235 0.6213873587688492 0  0.7697361971202799 0.5943793911944208 0  0.3630076616442724 0.6080350564914153 0  2.069570984533324 0.5812833454367354 0  1.875 1.5 0  1.125 1.5 0  2.4375 1.173854331507092 0  0.8831005780031504 1.150004411874495 0  1.52207987625039 0.9714054497350916 0  2.0625 1.207137905026185 0  1.107793318688589 0.5766433232347881 0  1.3125 1.2274095306559 0  2.729985961523573 0.9375 0  2.711750443384031 0.5625 0  1.6875 1.243073622519403 0  1.760894209596057 0.6242614373612321 0  0.2643049832376852 0.9767508850906206 0  0.4566194854768236 1.209399638766609 0  2.728217267602858 1.228217267602858 0  2.374499195658668 0.518153287180279 0  2.169650674143702 0.9320836008992801 0  0.8550719231757007 0.8663457099410541 0  1.303567858855371 0.4078893824383345 0  0.2133194436665546 1.297827371069245 0  0.5308017499037517 0.4517023193912283 0  1.083077097725883 1.270382833575872 0  0.6830238102386342 1.274223132985906 0  2.250983943328481 0.6895458766515071 0  1.81089184968521 0.4192208869708923 0  1.679274712803154 0.8238291020339636 0  1.5785148524717 0.4510287526682343 0  0 0.6344262550265519 0  0.2138866804674432 0.765685327335986 0  0.5683532856219899 0.6602211278972628 0  0.9375 1.5 0  0.93201471049342 0.4568525359126817 0  1.262687644113192 0.7198627504483751 0  0.4154000952342595 0.8069446327163143 0  0.2139559556345817 0.4540330649264536 0  2.06977986811652 0.3813318272583126 0  0.7200651071201811 0.4061566188086219 0  1.932157822851692 0.7243325602448901 0  0.9441947922338874 0.689010158618046 0  3 1.3125 0  2.8125 1.5 0  0.5625 1.5 0  1.865575888969794 1.126762336039809 0  1.691368628814911 1.054521333692312 0  2.243682835689564 1.11932177110543 0  2.294933652681559 1.30886281903233 0  2.4375 1.5 0  2.385653526545621 0.9864303388879195 0  2.560603055863368 1.320052196970997 0  2.605098352881707 1.08210421072607 0  2.797310903081369 0.7462827406561878 0  1.497248537655819 1.30111187331848 0  1.6875 1.5 0  3 0.5625 0  3 0.9375 0  1.3125 1.5 0  2.0625 1.5 0  3 0.1875 0  0.1875 1.5 0  0.9978323986844071 0.9954535003819682 0  0.7455388243606953 1.020382929522352 0  1.904625246064701 1.312514164033404 0  1.15622562020362 1.097022204090454 0  1.332774827327096 1.015638362851981 0  2.617489052932561 0.7904306825848915 0  2.798834931624827 0.3810601956207291 0  2.518702939674024 0.6340258449062608 0  1.42862153170688 0.8082655083169574 0  2.016051725629557 1.02698392558818 0  2.557580898838836 0.4303899543284488 0  0.9143579924460792 1.324371521638632 0  0.6907201107072946 0.792483910827579 0  0 1.32558362836354 0  0 0.9767508850906206 0  0.6046140448732628 1.120294499938289 0  1.129353874055204 0.4037183319394277 0  2.240578803971554 0.4086758810341738 0  1.544887400155686 1.138911442832316 0  2.828734594747712 1.083464790593587 0  0.401358428169992 0.3487630281226344 0  0.1737226743516005 1.126953194380642 0  1.219293394173851 1.36370476532795 0  2.095593203128485 0.7438044944874065 0  1.099947866649755 0.7404984974094087 0  0.4225987016856009 0.9654760294046846 0  1.265404984472296 0.5615537191035901 0  1.908099381276504 0.55154028811489 0  1.605233217264331 0.6055204891939014 0  0.2070403235706232 0.6098576665994301 0  0.46875 1.369568887475175 0  2.529999076220762 0.9220559311443081 0  0.3296306516835505 1.118561581461605 0  2.136891098712708 1.353568952513092 0  0.1250262355603041 0.8895426992723907 0  2.286468869522623 0.8363516131379349 0  2.03024950667879 0.8782110935537075 0  2.71875 1.380113023166798 0  2.851157149000174 1.312122703709591 0  2.855875221692015 0.6072101925796368 0  1.766081959310164 1.371536811259701 0  2.417227117459742 0.3724437385102629 0  1.365276810157265 1.363519047380362 0  1.451310499971155 0.3640091006357036 0  2.211012611580202 0.5503989260541815 0  1.306789156675977 0.2570819477057019 0  2.872418607762505 0.256220469598872 0  2.896902016958361 0.84375 0  0.6487095286926469 0.5256523827174592 0  1.021477811485347 1.13286821063065 0  1.622350554793597 1.371881362989231 0  1.297557547403682 0.854343314165958 0  0.5529398034156436 0.7974238691464364 0  1.000783388185185 0.848708117631217 0  0.8152141294141361 0.735251676415229 0  2.383386472338196 0.654760318649699 0  1.031024064601143 1.39833771698851 0  1.812756223744312 0.7919737740986065 0  2.902150447032281 0.46875 0  1.558478314279628 0.7430881247578319 0  2.428095049619715 1.306700780290589 0  0.3309906154406318 1.369459454266083 0  0.117457385934373 0.361895434578648 0  0.4016309285334721 0.4812757168525422 0  1.933925005895449 0.3564723397117748 0  0.7479761182598068 1.155601287121883 0  0.09711831342126455 1.23837544254531 0  1.384025258268523 0.5094422387329146 0  2.188092881729461 1.235445092789212 0  0.116614462422195 1.388212202394539 0  0.5993432477835932 1.374610260003488 0  0.8731519049868882 1.022757560732678 0  0.1109021857268646 0.5275252102504697 0  1.703820060431276 0.5017282682884084 0  0.1118224159219883 0.6921053365242938 0  0.3267069786561488 1.244030051070764 0  2.878127312164905 0.9679608000003684 0  1.408346090782441 1.129729637108486 0  0.8047358880839842 0.3153623688883521 0  2.6405066654848 0.6664933064830099 0  0.4805702216488833 1.081724858267193 0  2.668084598222495 0.3562155878484895 0  2.138121375887776 1.052804865904559 0  1.96875 1.5 0  0.4891907154726056 0.5668366043293971 0  0.1473863332166031 1.0086557402922 0  2.558860649578938 1.196592162044302 0  1.717555244640741 0.3396535732296396 0  0.84375 1.5 0  0.7839942032523698 1.367093097528149 0  3 1.40625 0  2.484124862262918 1.060073596740424 0  3 1.21875 0  2.34375 1.5 0  0.8196209764267471 1.251369088398821 0  2.023202270335131 1.319214170177879 0  0.5721208504581607 1.233781127425821 0  1.984735816620384 0.462442873488178 0  0.6955333931194808 0.9118686683832042 0  1.19123464962554 1.213906677421382 0  0.8929803638185398 0.5752987850534633 0  1.566736823664244 0.8614646887466211 0  1.808684073906441 1.017786844668201 0  1.719105195888173 0.9374041347540488 0  1.671476674178274 0.70476362875428 0  1.218260709491531 0.330629071498573 0  2.839021519587611 1.19788439058923 0  0.5170070740021471 0.3361933937254621 0  1.393527188254162 0.91788143976
[...]
<PointData  Vectors="f_60"> 
<DataArray  type="Float64"  Name="f_60"  NumberOfComponents="3" format="ascii">-1.4829743908737213e-04 -1.5392862599125707e-04 0.0000000000000000e+00  -2.4326523490641034e-05 -2.9780219416201581e-06 0.0000000000000000e+00  4.9252706130218549e-05 -4.5151066936012450e-06 0.0000000000000000e+00  3.5104655645418166e-04 1.1692325868074568e-04 0.0000000000000000e+00  2.2001404465124842e-04 6.5725377309435785e-04 0.0000000000000000e+00  -4.1227021594361326e-04 8.4861932898376645e-04 0.0000000000000000e+00  -3.2299082047585045e-04 8.6244468294598847e-04 0.0000000000000000e+00  6.0471508840220876e-04 9.8171674292856252e-04 0.0000000000000000e+00  -4.7375138001301526e-04 5.5106415560662338e-04 0.0000000000000000e+00  8.4288658031181037e-04 4.9004089027389309e-04 0.0000000000000000e+00  1.5039411114639361e-04 1.0679211219790615e-03 0.0000000000000000e+00  -4.1941930869658894e-04 1.0974527994103039e-03 0.0000000000000000e+00  -9.2174104717425858e-06 1.7961066822131801e-04 0.0000000000000000e+00  -4.7965291862154208e-05 8.1590517270732158e-05 0.0000000000000000e+00  1.5616271109758259e-04 1.8437980229166616e-04 0.0000000000000000e+00  -7.5714256405687847e-05 3.8151249061492594e-04 0.0000000000000000e+00  1.9275810761482332e-04 9.0973371764485080e-04 0.0000000000000000e+00  6.1463155252240503e-04 1.1392375520865115e-03 0.0000000000000000e+00  -2.9082688713579099e-04 5.7606848687594462e-04 0.0000000000000000e+00  6.6266134110130968e-04 3.9372591942254031e-04 0.0000000000000000e+00  -3.9104842123420085e-04 9.9834710955856612e-04 0.0000000000000000e+00  -3.0284816324888054e-04 7.6808071377411195e-04 0.0000000000000000e+00  -1.4690719964168569e-04 2.8328528711974902e-04 0.0000000000000000e+00  -6.2791793102896768e-05 3.2428640876964211e-05 0.0000000000000000e+00  1.4595540936209351e-04 5.0545450083661644e-04 0.0000000000000000e+00  7.9898643738896056e-04 1.3428120298934218e-03 0.0000000000000000e+00  -6.1070708575673574e-04 6.8956231837060506e-04 0.0000000000000000e+00  -3.4490506805457164e-04 3.4818752298084100e-04 0.0000000000000000e+00  -1.2109383499823818e-04 1.1214837365201684e-03 0.0000000000000000e+00  -2.3992531929491705e-04 8.9240890488756540e-04 0.0000000000000000e+00  3.5470003429867138e-04 8.2910718296544568e-04 0.0000000000000000e+00  -7.3170645293356440e-04 9.6091053264957195e-04 0.0000000000000000e+00  5.8532261547067528e-04 -1.0325221459667457e-04 0.0000000000000000e+00  7.2053919454481154e-04 -2.0589932087387725e-04 0.0000000000000000e+00  -1.5395134988513314e-04 7.1483629234760462e-04 0.0000000000000000e+00  -7.9075253927410652e-04 1.4322860714161231e-03 0.0000000000000000e+00  8.0672821993415232e-05 7.2321621054450224e-04 0.0000000000000000e+00  3.3368037842194476e-04 3.6129316170317732e-04 0.0000000000000000e+00  1.8007161432215095e-04 1.1504231167163253e-04 0.0000000000000000e+00  2.5040383854307597e-04 2.7742639500299472e-04 0.0000000000000000e+00  2.4419508356122099e-04 7.0060261764475884e-04 0.0000000000000000e+00  -1.4893322467687262e-05 4.9081892448545050e-04 0.0000000000000000e+00  -1.4123900488360565e-04 6.1951883781216676e-04 0.0000000000000000e+00  3.1325493204374059e-04 9.8941435788046993e-04 0.0000000000000000e+00  -3.6050241940519288e-04 6.7024999483401035e-04 0.0000000000000000e+00  -2.5952959364707718e-04 4.4207198865759269e-04 0.0000000000000000e+00  2.7218329587671929e-04 5.3735055422576513e-04 0.0000000000000000e+00  -7.5971413130432840e-04 1.0465474966430265e-03 0.0000000000000000e+00  7.3041118675833366e-04 8.3205593894558844e-04 0.0000000000000000e+00  2.6217471233367604e-04 8.8699202235119812e-04 0.0000000000000000e+00  -6.1454508651851249e-04 2.4987948420448298e-04 0.0000000000000000e+00  -4.4491771478769574e-04 1.1482010771290755e-04 0.0000000000000000e+00  -2.9877371563100764e-04 9.2494376580293261e-05 0.0000000000000000e+00  2.2379618107182668e-04 5.7664067805910453e-04 0.0000000000000000e+00  2.8289749223461955e-04 8.0406186743065043e-04 0.0000000000000000e+00  1.6692659544706716e-04 8.8145683615270759e-04 0.0000000000000000e+00  6.4921208633351123e-04 6.2563260692212528e-04 0.0000000000000000e+00  -4.8517396733762443e-04 4.6323722458545106e-04 0.0000000000000000e+00  -4.2883297753264227e-04 2.2469841054437360e-04 0.0000000000000000e+00  -1.6340611662352686e-04 4.1963634097259710e-05 0.0000000000000000e+00  -2.0040755117579025e-05 -1.9617717381916636e-05 0.0000000000000000e+00  -1.1538215341152559e-04 -2.9473894692210940e-05 0.0000000000000000e+00  6.1038905387140259e-04 4.4983558367280951e-04 0.0000000000000000e+00  4.6518378151289258e-04 9.5962932060487634e-04 0.0000000000000000e+00  -1.7849741313235556e-04 8.2342037424085646e-04 0.0000000000000000e+00  5.4020218280056217e-04 8.5854337121267076e-04 0.0000000000000000e+00  -6.6868152605413845e-05 7.8427253209991754e-04 0.0000000000000000e+00  5.3800607912885998e-04 2.5883826249005937e-04 0.0000000000000000e+00  3.4409352818358618e-04 6.5277332855382623e-04 0.0000000000000000e+00  3.6301021072554545e-04 4.8360205224228160e-04 0.0000000000000000e+00  8.4179672659392523e-05 -1.1157184783825179e-04 0.0000000000000000e+00  -8.3703945577184527e-05 1.1456330079721275e-04 0.0000000000000000e+00  7.7885349010199906e-04 5.9089054545834793e-04 0.0000000000000000e+00  1.6219636092657307e-03 7.0962685585004880e-04 0.0000000000000000e+00  1.0718367971541084e-03 2.3885198656721279e-04 0.0000000000000000e+00  4.6016951766950673e-04 4.3546852376158098e-04 0.0000000000000000e+00  3.6424494956588377e-04 1.6591693406551547e-04 0.0000000000000000e+00  5.2800383715454228e-04 -6.6927711140777246e-04 0.0000000000000000e+00  1.2289231094840150e-03 -7.6133140548995885e-04 0.0000000000000000e+00  -2.8847411040089106e-04 4.1156034826617534e-04 0.0000000000000000e+00  -5.8538209315882523e-04 4.8982996748708708e-04 0.0000000000000000e+00  2.2516903085064601e-04 -3.5392177006885714e-04 0.0000000000000000e+00  3.0546583220995453e-04 -1.2331657511382302e-04 0.0000000000000000e+00  -1.4795162092142080e-03 8.7819359491927019e-04 0.0000000000000000e+00  3.6244114999047313e-04 4.8760833150343332e-04 0.0000000000000000e+00  -1.4715721645739650e-05 2.1370158301756368e-05 0.0000000000000000e+00  3.6499996030350995e-05 1.5325205748749145e-04 0.0000000000000000e+00  -1.3820272260769090e-03 -6.8220379818308998e-04 0.0000000000000000e+00  4.2837682966634008e-04 -6.3137661897252298e-04 0.0000000000000000e+00  -1.1035820439782705e-05 5.9597691867162972e-05 0.0000000000000000e+00  -5.1218408378225985e-03 6.3782973635719714e-04 0.0000000000000000e+00  5.3158759335816027e-04 1.6271609142091868e-03 0.0000000000000000e+00  3.0355939893360421e-04 4.7207048244531406e-04 0.0000000000000000e+00  1.9962023695395710e-04 6.0631753198060002e-05 0.0000000000000000e+00  1.3147562428710771e-05 1.4643536985336695e-05 0.0000000000000000e+00  -3.9293155839590803e-04 -3.4764394177419733e-04 0.0000000000000000e+00  1.9211567412887883e-04 -2.0643308257709345e-04 0.0000000000000000e+00  -7.8653850402631044e-03 1.8862936786657445e+00 0.0000000000000000e+00  2.0044833430094052e-02 2.3325586481716720e-01 0.0000000000000000e+00  -2.0403021766431828e-02 2.0374957446409678e+00 0.0000000000000000e+00  2.7372650957235678e-02 2.4918673517961665e+00 0.0000000000000000e+00  1.0885377857894096e-03 -7.8651678706335954e-05 0.0000000000000000e+00  1.1597931071469676e-03 -7.2920656354849263e-04 0.0000000000000000e+00  -3.9948773087598248e-04 -4.9838241001374660e-04 0.0000000000000000e+00  2.7797486590958315e-06 -5.5373991066642158e-05 0.0000000000000000e+00  8.3801595200414497e-02 1.0442088632799553e+00 0.0000000000000000e+00  8.5705485348022206e-02 -2.1595522655351993e+00 0.0000000000000000e+00  8.4311419751921982e-02 6.7360143958816387e-01 0.0000000000000000e+00  -6.3703674142659955e-02 2.1696131891337593e+00 0.0000000000000000e+00  -8.2077427384714675e-05 -8.5655726876279965e-04 0.0000000000000000e+00  -3.8783097923671025e-04 -1.1628769196129563e-03 0.0000000000000000e+00  4.6863699384265717e-01 2.5954909283236374e+00 0.0000000000000000e+00  -1.1028537103249844e-01 2.2020140399802814e+00 0.0000000000000000e+00  -1.3476460724438411e-02 2.1399800294347378e+00 0.0000000000000000e+00  1.1014632675002622e-01 1.7311714765954844e+00 0.0000000000000000e+00  9.2185720183574044e-02 -9.0848482116794027e-01 0.0000000000000000e+00  -7.5635657725909466e-02 -1.6995686805459891e+00 0.0000000000000000e+00  4.5538722412458316e-01 3.4583269922895443e+00 0.0000000000000000e+00  -5.1253362640552114e-01 2.9236514924439327e+00 0.0000000000000000e+00  -3.4027849018315716e-02 -1.5146594626752770e+00 0.0000000000000000e+00  1.4420971379287125e-02 1.6674340439887188e+00 0.0000000000000000e+00  -2.0714622034583175e-02 1.6322863817988460e+00 0.0000000000000000e+00  -6.8562528070023193e-02 -2.2728003375620101e+00 0.0000000000000000e+00  1.1842889499052092e+00 3.3725203338515652e+00 0.0000000000000000e+00  -2.8156533358653202e-01 2.6049517325091438e+00 0.0000000000000000e+00  6.4678695133590966e-02 7.5747397108742820e-01 0.0000000000000000e+00  3.3375721631204672e-03 1.3386790981153127e+00 0.0000000000000000e+00  2.0470352340104356e-01 -9.9845563399644832e-01 0.0000000000000000e+00  -1.3271238945260658e-01 -4.0263717226509577e-01 0.0000000000000000e+00  1.6105178512433019e-01 1.0385467577305048e-02 0.0000000000000000e+00  -1.2197780801897155e-01 -1.6165305303461532e+00 0.0000000000000000e+00  -1.0889464839887524e-01 -5.6760448603320091e-01 0.0000000000000000e+00  -1.4553242602574828e-01 -1.7961311414064858e+00 0.0000000000000000e+00  -2.5521607746274162e-02 2.2815999716617674e+00 0.0000000000000000e+00  3.0188867753123183e-02 -1.7876829934809744e+00 0.0000000000000000e+00  2.5687665048272863e-02 -1.1552606615229941e-01 0.0000000000000000e+00  1.3605586234142037e-05 -1.3021962896049390e-05 0.0000000000000000e+00  3.6787705566184936e-02 -6.4621003575499725e-01 0.0000000000000000e+00  6.6967740780151969e-02 1.7027079150543443e+00 0.0000000000000000e+00  6.1335630386089512e-04 -8.6836356122770063e-04 0.0000000000000000e+00  7.7178077615152177e-02 1.8868223328580835e+00 0.0000000000000000e+00  5.9251095622954060e-02 7.3077895837919626e-01 0.0000000000000000e+00  5.4367426043362983e-02 -1.7244580055907084e+00 0.0000000000000000e+00  1.6085646690890518e-01 -7.0002537521983610e-01 0.0000000000000000e+00  -1.4161155262167294e-01 2.0883681937790746e+00 0.0000000000000000e+00  5.9525788873249171e-02 -1.7875119952704985e+00 0.0000000000000000e+00  -2.3819970908698303e-02 -1.9203376616107715e+00 0.0000000000000000e+00  5.3637345166416356e-02 1.4679835673002364e+00 0.0000000000000000e+00  2.1518643907949417e-04 -1.2067399008878268e-04 0.0000000000000000e+00  3.5172960307139328e-03 -1.0237532693656128e-03 0.0000000000000000e+00  -4.7570608739898562e-04 -9.0320585091430052e-04 0.0000000000000000e+00  1.9782471033447147e-02 6.3921898932223586e-01 0.0000000000000000e+00  1.1480223864754448e-02 -1.3919671445522817e+00 0.0000000000000000e+00  1.7419600267106566e-01 -1.8907652730928990e+00 0.0000000000000000e+00  2.8645882703713099e-01 -1.4788667281173917e+00 0.0000000000000000e+00  -3.2905105732179099e-05 -9.8436170804458542e-04 0.0000000000000000e+00  2.7085877386964707e-01 2.7589488256699060e+00 0.0000000000000000e+00  7.2172148361379229e-01 -1.8469376111245634e+00 0.0000000000000000e+00  4.5076879077214954e-01 -6.4607813216618670e-01 0.0000000000000000e+00  -2.9333334561641500e-01 3.0143594230933418e-01 0.0000000000000000e+00  -1.2781211355296179e-01 2.2829451939451659e+00 0.0000000000000000e+00  8.1897881818627735e-04 -2.4561641756983628e-04 0.0000000000000000e+00  -2.5457539868504490e-03 -7.8270903286276517e-04 0.0000000000000000e+00  9.7301371446846551e-04 1.6256368468476343e-04 0.0000000000000000e+00  -6.0729849979728183e-04 -3.4706673887768374e-04 0.0000000000000000e+00  -9.4215199327380079e-04 -6.3238281434396153e-04 0.0000000000000000e+00  -4.8659168624968861e-03 1.2567829162457960e-04 0.0000000000000000e+00  4.6262107561060000e-04 -6.6429447436749749e-04 0.0000000000000000e+00  -1.2643449900319285e-02 -1.0739452745416118e+00 0.0000000000000000e+00  -9.7069553844148660e-03 -2.3033741226792159e+00 0.0000000000000000e+00  5.5446959288051691e-02 -1.2051051651585998e+00 0.0000000000000000e+00  -7.1776523210208720e-02 1.4891922634555530e+00 0.0000000000000000e+00  1.5451288240673564e-03 -2.1232522012601747e+00 0.0000000000000000e+00  -2.2376964085261276e-02 8.6312302125386742e-01 0.0000000000000000e+00  -1.6281596732845609e+00 -4.9720001809876513e-01 0.0000000000000000e+00  -4.2363833211204305e-01 -1.1610931319111264e+00 0.0000000000000000e+00  4.3401016968211512e-02 1.6933872922285623e-01 0.0000000000000000e+00  7.6251210777913997e-02 -2.8432736740095721e-01 0.0000000000000000e+00  -8.0077719553622562e-01 -9.3388127318981440e-01 0.0000000000000000e+00  -1.3922260991837515e-01 2.0489367881965310e+00 0.0000000000000000e+00  4.4586064661409297e-02 -6.9900761960123459e-01 0.0000000000000000e+00  9.9741836610815177e-05 -4.3657995118617218e-04 0.0000000000000000e+00  -5.0621917664577910e-07 -1.2095178798075838e-05 0.0000000000000000e+00  -9.2784639327907106e-02 2.2626489216830374e+00 0.0000000000000000e+00  2.2195046563080681e-01 3.8142963137579040e-02 0.0000000000000000e+00  -2.9963010969942921e-01 -1.8998896187532022e+00 0.0000000000000000e+00  -5.2337946947783834e-02 1.3784766521626142e+00 0.0000000000000000e+00  6.2804932856316498e-01 1.5876395870272603e-01 0.0000000000000000e+00  7.8013807912079416e-02 -9.9361837245167084e-01 0.0000000000000000e+00  -1.8733338510368621e-02 -2.0592890896435256e+00 0.0000000000000000e+00  -9.6640628680960586e-02 1.8533164237587327e+00 0.0000000000000000e+00  8.2954899646704022e-03 2.6192266657841148e+00 0.0000000000000000e+00  6.0508571700995023e-02 -1.1970575335122788e+00 0.0000000000000000e+00  1.1615608916759761e-02 -1.9774602904149265e+00 0.0000000000000000e+00  1.0255402190674999e-01 6.8857013515171084e-01 0.0000000000000000e+00  -5.8579428450351877e-02 -1.3338002095934469e+00 0.0000000000000000e+00  4.2045685725442455e-02 -1.2398454212556518e+00 0.0000000000000000e+00  7.4232734017822405e-02 -9.8235121664624447e-01 0.0000000000000000e+00  -2.1521628677100607e-01 -1.9106853561571369e+00 0.0000000000000000e+00  6.7722378884308002e-02 -1.1069169799676835e+00 0.0000000000000000e+00  -6.6273475480835800e-02 1.7802721625865241e+00 0.0000000000000000e+00  2.4392882236598773e-01 1.8387173630182003e+00 0.0000000000000000e+00  1.9261892958917014e-02 -2.0828268945105588e+00 0.0000000000000000e+00  -5.9849742236940621e-03 -1.1535489492944655e+00 0.0000000000000000e+00  4.4238613453162039e-02 4.9202514756802518e-01 0.0000000000000000e+00  1.1960603791265034e+00 2.4215822171638308e+00 0.0000000000000000e+00  1.5370157310828292e+00 -1.3854265686928352e-01 0.0000000000000000e+00  -7.2034781173838691e-01 -9.3139489899605230e-02 0.0000000000000000e+00  -2.3841936898251509e-01 1.6649469914716901e+00 0.0000000000000000e+00  -5.5025209491460647e-01 1.8727427282972176e+00 0.0000000000000000e+00  -1.8926103023149207e-01 -1.9969372998793329e+00 0.0000000000000000e+00  1.2838304112580842e-01 9.1034151095872362e-01 0.0000000000000000e+00  -2.1566001561262657e-01 -1.3622609016888247e+00 0.0000000000000000e+00  8.0957734295483294e-02 -1.1140591320835231e+00 0.0000000000000000e+00  -1.4384060548907871e+00 1.8119775718241984e+00 0.0000000000000000e+00  1.0044331187666844e-02 6.3273659026643347e-01 0.0000000000000000e+00  8.7776437265383589e-02 1.2765833173395611e+00 0.0000000000000000e+00  -5.2515072988711158e-02 -1.9505220399224348e+00 0.0000000000000000e+00  -2.7414564949485291e-02 -1.8668818618878777e+00 0.0000000000000000e+00  3.7845303522579747e-02 -9.5746727928465603e-01 0.0000000000000000e+00  3.2384566641078812e-02 1.1882343961911173e+00 0.0000000000000000e+00  3.2414921131188545e-02 -1.1396518011700481e+00 0.0000000000000000e+00  5.3635881394345948e-02 -5.4009187839948269e-01 0.0000000000000000e+00  -1.1252532692011909e-01 2.8218469258350507e+00 0.0000000000000000e+00  -8.0575578758760494e-02 -1.9771158537528450e+00 0.0000000000000000e+00  1.9169681361563932e-02 2.3891982772817304e+00 0.0000000000000000e+00  -8.9663750162433309e-01 2.4266943847999949e+00 0.0000000000000000e+00  3.3566194860961990e-02 9.0478136155119060e-01 0.0000000000000000e+00  5.3272997902083630e-01 2.5622054040893527e+00 0.0000000000000000e+00  -4.3052046773110191e-02 1.5325154971758743e+00 0.0000000000000000e+00  4.6473603649507186e-03 -1.5153007729845787e+00 0.0000000000000000e+00  1.4654482588655926e-01 -1.0580633626279434e+00 0.0000000000000000e+00  -1.3376117595918743e-01 -1.9442820978192954e+00 0.0000000000000000e+00  -5.8245723477597142e-02 -2.3068256318238682e+00 0.0000000000000000e+00  -8.5581148765576289e-03 -1.1203174030678955e+00 0.0000000000000000e+00  1.5454842164480048e-01 -1.8166106399885436e+00 0.0000000000000000e+00  1.9628340614032996e-01 -9.7169713233764970e-02 0.0000000000000000e+00  5.3489144493258879e-03 -1.6242696157954850e+00 0.0000000000000000e+00  -1.8192913561126531e-01 2.0193391697472207e+00 0.0000000000000000e+00  -5.5086862401464938e-02 1.9773126163516115e+00 0.0000000000000000e+00  7.4029389114306940e-02 -1.5294748732335612e+00 0.0000000000000000e+00  1.9124735619963047e-02 -9.3741836590748373e-01 0.0000000000000000e+00  4.5585061041846973e-02 -1.6430627790149663e+00 0.0000000000000000e+00  -1.0907699535334585e-01 1.8298711824731781e+00 0.0000000000000000e+00  2.8205412202675745e-01 -3.4410224157357239e-01 0.0000000000000000e+00  -4.1039339733702829e-02 -6.7646087030383528e-01 0.0000000000000000e+00  3.5711704104310710e-01 -9.7960916362045170e-01 0.0000000000000000e+00  -1.9488429325041706e-01 2.3187256050191731e+00 0.0000000000000000e+00  -2.9050039979863471e-02 -1.8280137822521056e+00 0.0000000000000000e+00  -1.1040418883835379e+00 2.6797401091487321e+00 0.0000000000000000e+00  1.2842485015720814e-01 2.0760108546618810e+00 0.0000000000000000e+00  7.3154217412137222e-04 -6.6915374996583078e-04 0.0000000000000000e+00  1.2650917018365412e-01 -1.7188901932172891e+00 0.0000000000000000e+00  4.9081202980650442e-03 -2.3853436558585797e+00 0.0000000000000000e+00  5.2959447095188972e-01 -1.6448478804379445e+00 0.0000000000000000e+00  2.6034009173060230e-01 -3.8649565177013245e-01 0.0000000000000000e+00  -7.1452978533455963e-04 -6.4379427326664677e-04 0.0000000000000000e+00  -2.9121272200040754e-01 -1.4306915047034281e+00 0.0000000000000000e+00  8.9492316287979282e-04 -2.0770052186799563e-04 0.0000000000000000e+00  3.2931340261495812e-01 7.8034612435903228e-01 0.0000000000000000e+00  2.6383566930605326e-04 1.7362828598142046e-04 0.0000000000000000e+00  -9.0123009902909457e-05 -9.2290753106115202e-04 0.0000000000000000e+00  -1.4131906466215652e-01 -6.4341853643614971e-02 0.0000000000000000e+00  1.1393590158198508e-02 -5.7158426480207795e-02 0.0000000000000000e+00  -1.4371404166488252e-01 1.9770292171446753e+00 0.0000000000000000e+00  -9.3859312559313027e-02 -1.4305985472440281e+00 0.0000000000000000e+00  1.1147200579992122e-02 -9.7220322563042283e-01 0.0000000000000000e+00  -1.2831404162412638e-01 2.3032436909612359e+00 0.0000000000000000e+00  7.6410154762384455e-02 2.2700183300128693e+00 0.0000000000000000e+00  1.7008099155447255e-02 5.1697006708810467e-01 0.0000000000000000e+00  1.7275583340412647e-02 2.4337525067824721e+00 0.0000000000000000e+00  2.4259878716464397e-02 -1.8471230341398193e-01 0.0000000000000000e+00  3.1268493210449520e-02 -1.9835157516004152e+00 0.0000000000000000e+00  3.4298425012834627e-01 2.2800326122898551e+00 0.0000000000000000e+00  9.9504894860280191e-01 5.7260954097489207e-02 0.0000000000000000e+00  3.7980332989655841e-01 -6.8017277583452862e-01 0.0000000000000000e+00  2.7295920277153472e-02 -1.3705905134361256e+00 0.0000000000000000e+00  -2.2342464478809901e-02 2.3586598443069482e+00 0.0000000000000000e+00  3.5471491366118337e-03 1.5898933773138844e+00 0.0000000000000000e+00  -3.1307568160407834e-02 -1.3815506842208212e+00 0.0000000000000000e+00  3.1441804999655082e-01 1.8860201967860049e+00 0