<?xml version="1.0"?>
<VTKFile type="UnstructuredGrid"  version="0.1"  >
<UnstructuredGrid>
<Piece  NumberOfPoints="4835" NumberOfCells="9296">
<Points>
<DataArray  type="Float64"  NumberOfComponents="3"  format="ascii">0 1.5 0  -0 0.1307014797437256 0  0.01134725726173103 0.1483581566929452 0  0.04283342385313163 0.181379897845022 0  0.08000000000000007 0.2078460969082653 0  0.1215036888038188 0.2268001964915204 0  0.1658444388144116 0.2375571460514239 0  0.2114196597976982 0.2397281614039219 0  0.2565821445222626 0.23323477639765 0  0.2996996031204527 0.2183116788850844 0  0.3392136582970876 0.1954982284920806 0  0.3736961691452169 0.1656189627557069 0  0.4019008478794835 0.1297537961893434 0  0.4059948616314525 0.1218125174167552 0  0.4254856317806581 0.1498156710261111 0  0.4592156240140376 0.1818784194956707 0  0.498709345141744 0.2064950441012706 0  0.5423499175804942 0.222657737339227 0  0.588350691167096 0.2297047966493422 0  0.6348283888260526 0.2273477145954656 0  0.6798802081543086 0.2156829903938285 0  0.7216617223752013 0.1951881792237927 0  0.7584623913874079 0.1667023410626976 0  0.7879811633353602 0.1323170874919288 0  0.8152477706948351 0.1684239109116393 0  0.849341340905186 0.1995043068200599 0  0.8885654110558655 0.2237908228387656 0  0.9315842524819793 0.2404564107932048 0  0.9769329101341745 0.2489335440737586 0  1.023067089865825 0.2489335440737586 0  1.068415747518021 0.2404564107932048 0  1.111434588944135 0.2237908228387656 0  1.150658659094814 0.1995043068200599 0  1.184752229305165 0.1684239109116393 0  1.212554283932403 0.1316080407193389 0  1.233118057351089 0.09031041654678823 0  1.245743274920975 0.04593737945414259 0  1.25 0 0  1.36108673858246 0 0  1.36108673858246 0.02281345039300389 0  1.369721686332521 0.06761581364194322 0  1.386679492322819 0.1099743652145785 0  1.411347257261731 0.1483581566929452 0  1.442833423853132 0.181379897845022 0  1.48 0.2078460969082653 0  1.521503688803819 0.2268001964915204 0  1.565844438814412 0.2375571460514239 0  1.611419659797698 0.2397281614039219 0  1.656582144522263 0.23323477639765 0  1.699699603120453 0.2183116788850844 0  1.739213658297088 0.1954982284920806 0  1.765497292517293 0.1727233297951148 0  1.79 0.1905255888325765 0  1.832016261237511 0.2092324335849338 0  1.877003738081116 0.2187948169810202 0  1.922996261918884 0.2187948169810201 0  1.967983738762488 0.2092324335849338 0  2.01 0.1905255888325765 0  2.047208733398949 0.1634918616050267 0  2.077983738762488 0.1293127555043441 0  2.087980221556173 0.1119983394086949 0  2.111347257261731 0.1483581566929452 0  2.142833423853131 0.181379897845022 0  2.18 0.2078460969082653 0  2.221503688803819 0.2268001964915204 0  2.265844438814411 0.2375571460514239 0  2.311419659797698 0.2397281614039219 0  2.356582144522263 0.23323477639765 0  2.399699603120453 0.2183116788850844 0  2.439213658297088 0.1954982284920806 0  2.457172785224357 0.179936556425434 0  2.459215624014038 0.1818784194956707 0  2.498709345141744 0.2064950441012706 0  2.542349917580494 0.222657737339227 0  2.588350691167096 0.2297047966493422 0  2.634828388826053 0.2273477145954656 0  2.679880208154309 0.2156829903938285 0  2.721661722375202 0.1951881792237927 0  2.758462391387408 0.1667023410626976 0  2.788775591477674 0.1313916894718022 0  2.811360296672653 0.09070184667606328 0  2.825291886488074 0.04629865962039181 0  2.83 0 0  3 0 0  3 1.5 0  0 0.8023345134541607 0  0.4157402467060553 0.1358140942214332 0  3 0.75 0  1.5 1.5 0  0 0.4665179965989431 0  3 0.375 0  0 0.2986097381713344 0  0 0.21465560895753 0  0 0.1726785443506278 0  0 0.1516900120471767 0  2.25 1.5 0  0.75 1.5 0  1.169989811679434 0.9093651732355621 0  1.875 0.9142758100523694 0  0.5779365036100435 0.9330077223331824 0  2.43246936225428 0.7976868957014953 0  3 1.125 0  2.625 1.5 0  0.375 1.5 0  0 1.15116725672708 0  1.449253057879235 0.6213873587688492 0  0.7697361971202799 0.5943793911944208 0  0.3630076616442724 0.6080350564914153 0  2.069570984533324 0.5812833454367354 0  1.875 1.5 0  1.125 1.5 0  2.4375 1.173854331507092 0  0.8831005780031504 1.150004411874495 0  1.52207987625039 0.9714054497350916 0  2.0625 1.207137905026185 0  1.107793318688589 0.5766433232347881 0  1.3125 1.2274095306559 0  2.729985961523573 0.9375 0  2.711750443384031 0.5625 0  1.6875 1.243073622519403 0  1.760894209596057 0.6242614373612321 0  0.2643049832376852 0.9767508850906206 0  0.4566194854768236 1.209399638766609 0  2.728217267602858 1.228217267602858 0  2.374499195658668 0.518153287180279 0  2.169650674143702 0.9320836008992801 0  0.8550719231757007 0.8663457099410541 0  1.303567858855371 0.4078893824383345 0  0.2133194436665546 1.297827371069245 0  0.5308017499037517 0.4517023193912283 0  1.083077097725883 1.270382833575872 0  0.6830238102386342 1.274223132985906 0  2.250983943328481 0.6895458766515071 0  1.81089184968521 0.4192208869708923 0  1.679274712803154 0.8238291020339636 0  1.5785148524717 0.4510287526682343 0  0 0.6344262550265519 0  0.2138866804674432 0.765685327335986 0  0.5683532856219899 0.6602211278972628 0  0.9375 1.5 0  0.93201471049342 0.4568525359126817 0  1.262687644113192 0.7198627504483751 0  0.4154000952342595 0.8069446327163143 0  0.2139559556345817 0.4540330649264536 0  2.06977986811652 0.3813318272583126 0  0.7200651071201811 0.4061566188086219 0  1.932157822851692 0.7243325602448901 0  0.9441947922338874 0.689010158618046 0  3 1.3125 0  2.8125 1.5 0  0.5625 1.5 0  1.865575888969794 1.126762336039809 0  1.691368628814911 1.054521333692312 0  2.243682835689564 1.11932177110543 0  2.294933652681559 1.30886281903233 0  2.4375 1.5 0  2.385653526545621 0.9864303388879195 0  2.560603055863368 1.320052196970997 0  2.605098352881707 1.08210421072607 0  2.797310903081369 0.7462827406561878 0  1.497248537655819 1.30111187331848 0  1.6875 1.5 0  3 0.5625 0  3 0.9375 0  1.3125 1.5 0  2.0625 1.5 0  3 0.1875 0  0.1875 1.5 0  0.9978323986844071 0.9954535003819682 0  0.7455388243606953 1.020382929522352 0  1.904625246064701 1.312514164033404 0  1.15622562020362 1.097022204090454 0  1.332774827327096 1.015638362851981 0  2.617489052932561 0.7904306825848915 0  2.798834931624827 0.3810601956207291 0  2.518702939674024 0.6340258449062608 0  1.42862153170688 0.8082655083169574 0  2.016051725629557 1.02698392558818 0  2.557580898838836 0.4303899543284488 0  0.9143579924460792 1.324371521638632 0  0.6907201107072946 0.792483910827579 0  0 1.32558362836354 0  0 0.9767508850906206 0  0.6046140448732628 1.120294499938289 0  1.129353874055204 0.4037183319394277 0  2.240578803971554 0.4086758810341738 0  1.544887400155686 1.138911442832316 0  2.828734594747712 1.083464790593587 0  0.401358428169992 0.3487630281226344 0  0.1737226743516005 1.126953194380642 0  1.219293394173851 1.36370476532795 0  2.095593203128485 0.7438044944874065 0  1.099947866649755 0.7404984974094087 0  0.4225987016856009 0.9654760294046846 0  1.265404984472296 0.5615537191035901 0  1.908099381276504 0.55154028811489 0  1.605233217264331 0.6055204891939014 0  0.2070403235706232 0.6098576665994301 0  0.46875 1.369568887475175 0  2.529999076220762 0.9220559311443081 0  0.3296306516835505 1.118561581461605 0  2.136891098712708 1.353568952513092 0  0.1250262355603041 0.8895426992723907 0  2.286468869522623 0.8363516131379349 0  2.03024950667879 0.8782110935537075 0  2.71875 1.380113023166798 0  2.851157149000174 1.312122703709591 0  2.855875221692015 0.6072101925796368 0  1.766081959310164 1.371536811259701 0  2.417227117459742 0.3724437385102629 0  1.365276810157265 1.363519047380362 0  1.451310499971155 0.3640091006357036 0  2.211012611580202 0.5503989260541815 0  1.306789156675977 0.2570819477057019 0  2.872418607762505 0.256220469598872 0  2.896902016958361 0.84375 0  0.6487095286926469 0.5256523827174592 0  1.021477811485347 1.13286821063065 0  1.622350554793597 1.371881362989231 0  1.297557547403682 0.854343314165958 0  0.5529398034156436 0.7974238691464364 0  1.000783388185185 0.848708117631217 0  0.8152141294141361 0.735251676415229 0  2.383386472338196 0.654760318649699 0  1.031024064601143 1.39833771698851 0  1.812756223744312 0.7919737740986065 0  2.902150447032281 0.46875 0  1.558478314279628 0.7430881247578319 0  2.428095049619715 1.306700780290589 0  0.3309906154406318 1.369459454266083 0  0.117457385934373 0.361895434578648 0  0.4016309285334721 0.4812757168525422 0  1.933925005895449 0.3564723397117748 0  0.7479761182598068 1.155601287121883 0  0.09711831342126455 1.23837544254531 0  1.384025258268523 0.5094422387329146 0  2.188092881729461 1.235445092789212 0  0.116614462422195 1.388212202394539 0  0.5993432477835932 1.374610260003488 0  0.8731519049868882 1.022757560732678 0  0.1109021857268646 0.5275252102504697 0  1.703820060431276 0.5017282682884084 0  0.1118224159219883 0.6921053365242938 0  0.3267069786561488 1.244030051070764 0  2.878127312164905 0.9679608000003684 0  1.408346090782441 1.129729637108486 0  0.8047358880839842 0.3153623688883521 0  2.6405066654848 0.6664933064830099 0  0.4805702216488833 1.081724858267193 0  2.668084598222495 0.3562155878484895 0  2.138121375887776 1.052804865904559 0  1.96875 1.5 0  0.4891907154726056 0.5668366043293971 0  0.1473863332166031 1.0086557402922 0  2.558860649578938 1.196592162044302 0  1.717555244640741 0.3396535732296396 0  0.84375 1.5 0  0.7839942032523698 1.367093097528149 0  3 1.40625 0  2.484124862262918 1.060073596740424 0  3 1.21875 0  2.34375 1.5 0  0.8196209764267471 1.251369088398821 0  2.023202270335131 1.319214170177879 0  0.5721208504581607 1.233781127425821 0  1.984735816620384 0.462442873488178 0  0.6955333931194808 0.9118686683832042 0  1.19123464962554 1.213906677421382 0  0.8929803638185398 0.5752987850534633 0  1.566736823664244 0.8614646887466211 0  1.808684073906441 1.017786844668201 0  1.719105195888173 0.9374041347540488 0  1.671476674178274 0.70476362875428 0  1.218260709491531 0.330629071498573 0  2.839021519587611 1.19788439058923 0  0.5170070740021471 0.3361933937254621 0  1.393527188254162 0.91788143976
[...]
<PointData  Vectors="f_60"> 
<DataArray  type="Float64"  Name="f_60"  NumberOfComponents="3" format="ascii">-1.0215609349353727e-04 -2.5538649640524679e-04 0.0000000000000000e+00  -6.3822229592746968e-05 5.9482649017526531e-06 0.0000000000000000e+00  6.5577485351902724e-05 1.3698002170432797e-05 0.0000000000000000e+00  3.7319435768147155e-04 1.9173881054672319e-04 0.0000000000000000e+00  1.9651552037959686e-04 6.4531736969893549e-04 0.0000000000000000e+00  -4.6801831177200481e-04 7.7521036823640559e-04 0.0000000000000000e+00  -1.6199713325089934e-04 8.9843817462137735e-04 0.0000000000000000e+00  6.8249824274471519e-04 9.5184075401233078e-04 0.0000000000000000e+00  -5.9808945654890242e-04 5.8322789549274719e-04 0.0000000000000000e+00  8.0923749712619696e-04 4.4427246554589839e-04 0.0000000000000000e+00  1.0937744345411474e-04 9.8443357950617639e-04 0.0000000000000000e+00  -4.6946161152988544e-04 1.1424651631046301e-03 0.0000000000000000e+00  4.7757307183216489e-05 1.6767570938237833e-04 0.0000000000000000e+00  2.7235729020841754e-05 1.1129930090503420e-04 0.0000000000000000e+00  1.4358602902435873e-04 2.9044700680986457e-04 0.0000000000000000e+00  -1.0308839525461966e-04 4.0240203883198141e-04 0.0000000000000000e+00  3.2564224896887363e-04 9.7212038399916497e-04 0.0000000000000000e+00  5.6081503954511609e-04 1.0592475668015331e-03 0.0000000000000000e+00  -3.5954406194054601e-04 5.3393943038216143e-04 0.0000000000000000e+00  6.8405342354795941e-04 3.7781412335473428e-04 0.0000000000000000e+00  -4.4127859463516454e-04 9.7786660868466970e-04 0.0000000000000000e+00  -2.1417340091016863e-04 7.8005513741769147e-04 0.0000000000000000e+00  -1.3885026076144977e-04 3.9459722891196865e-04 0.0000000000000000e+00  -1.2432759925667218e-04 6.4969868343902975e-05 0.0000000000000000e+00  2.5011286670753656e-04 6.5526125243219578e-04 0.0000000000000000e+00  7.3564506251784512e-04 1.2309033501676462e-03 0.0000000000000000e+00  -6.6993277437007504e-04 5.0529808724240715e-04 0.0000000000000000e+00  -3.2376538956737960e-04 2.6841189416238826e-04 0.0000000000000000e+00  -1.6225165892831580e-04 1.0601339261466114e-03 0.0000000000000000e+00  -2.3981295732018385e-04 8.6444120927992453e-04 0.0000000000000000e+00  4.8121961116513967e-04 7.8465344594896413e-04 0.0000000000000000e+00  -6.9460848922812089e-04 9.9014429259106562e-04 0.0000000000000000e+00  4.8108879312205719e-04 -6.8751874130688670e-06 0.0000000000000000e+00  6.3967516333298595e-04 -2.9694849553223894e-04 0.0000000000000000e+00  -1.4739195315947371e-04 4.9838923921111035e-04 0.0000000000000000e+00  -7.1468847385990444e-04 1.1421562876732831e-03 0.0000000000000000e+00  8.4386028634161490e-05 9.2399848964084131e-04 0.0000000000000000e+00  3.7446169255820488e-04 5.6736740305738753e-04 0.0000000000000000e+00  2.0080626362441786e-04 1.8841800115176866e-04 0.0000000000000000e+00  2.3433803524217127e-04 3.5174112978235384e-04 0.0000000000000000e+00  1.7695213004122621e-04 6.8645670158043210e-04 0.0000000000000000e+00  -1.1948633301498281e-04 4.0939577689876923e-04 0.0000000000000000e+00  -6.9508134143204316e-05 6.6583470840889808e-04 0.0000000000000000e+00  3.8640545573988061e-04 1.0127704253062571e-03 0.0000000000000000e+00  -4.0491995255077947e-04 5.6003139921446791e-04 0.0000000000000000e+00  -2.2998337282956281e-04 4.2216830787324827e-04 0.0000000000000000e+00  3.0352869242471729e-04 5.7240469792712223e-04 0.0000000000000000e+00  -7.8700174729401764e-04 1.0109216846987178e-03 0.0000000000000000e+00  7.4944187848295879e-04 7.9022959182378381e-04 0.0000000000000000e+00  2.8484411661139721e-04 8.0805195306713851e-04 0.0000000000000000e+00  -6.8031354514800388e-04 3.5598461463086703e-04 0.0000000000000000e+00  -4.6139603069596230e-04 2.3240029116653255e-04 0.0000000000000000e+00  -2.1399023657231160e-04 2.2189259976649752e-04 0.0000000000000000e+00  3.1960556927085890e-04 6.7539019665492596e-04 0.0000000000000000e+00  2.4003357252424010e-04 8.1891605222975247e-04 0.0000000000000000e+00  4.2208347937756582e-05 9.0055284968712881e-04 0.0000000000000000e+00  6.4272560470229163e-04 6.1759877176217209e-04 0.0000000000000000e+00  -3.7056662576113455e-04 4.2857754592672508e-04 0.0000000000000000e+00  -4.9721738690955094e-04 2.8879635102238858e-04 0.0000000000000000e+00  -2.0645963293551000e-04 8.4350943932652315e-05 0.0000000000000000e+00  -1.4867471067515182e-05 1.3547060208332134e-05 0.0000000000000000e+00  -1.3711140908077000e-04 2.2065033327893406e-05 0.0000000000000000e+00  6.9782379990593498e-04 5.8896237761952707e-04 0.0000000000000000e+00  5.5719382167878002e-04 9.7223690848104096e-04 0.0000000000000000e+00  -3.8274748751884524e-04 7.0479301041870876e-04 0.0000000000000000e+00  4.7764995809857863e-04 8.6624095139243792e-04 0.0000000000000000e+00  8.7876390901858175e-05 8.0135988808406719e-04 0.0000000000000000e+00  2.5775168500769181e-04 2.4665439125146337e-04 0.0000000000000000e+00  3.5227996784795379e-04 7.3616242607616681e-04 0.0000000000000000e+00  5.2347577493021150e-04 1.0142540125382114e-03 0.0000000000000000e+00  -5.8272498725339520e-04 1.4059662453857116e-04 0.0000000000000000e+00  2.5701214901704326e-04 2.7219963527178715e-04 0.0000000000000000e+00  5.1295094463353369e-04 8.1884306402898793e-04 0.0000000000000000e+00  1.2278800567599741e-03 7.2161927156729746e-04 0.0000000000000000e+00  8.2774728110237357e-04 3.1504774157911213e-04 0.0000000000000000e+00  1.1219146150995422e-03 -2.2183575223107049e-04 0.0000000000000000e+00  1.0602609624166034e-03 -8.9081920289937040e-05 0.0000000000000000e+00  -4.5828164576028482e-04 -1.6360758494980194e-04 0.0000000000000000e+00  6.0357717599953450e-04 -5.6623954296889972e-04 0.0000000000000000e+00  6.2091349943339390e-04 -2.8208705700249662e-04 0.0000000000000000e+00  -3.4479028744221671e-04 4.1633363397118313e-04 0.0000000000000000e+00  -4.4338214366061382e-05 5.8836085227628961e-05 0.0000000000000000e+00  1.0415585578256736e-04 -2.4265895285849026e-05 0.0000000000000000e+00  -2.2736559065256222e-03 1.3999851970892983e-03 0.0000000000000000e+00  -2.0764095719894545e-03 1.1135320970007416e-03 0.0000000000000000e+00  -8.3741684907001550e-06 2.0228353608521652e-05 0.0000000000000000e+00  9.2517425195122813e-05 2.0317487369668068e-04 0.0000000000000000e+00  -4.9286999255863093e-04 -4.5582005612653724e-04 0.0000000000000000e+00  3.5235316492068726e-04 -6.2512861323064147e-04 0.0000000000000000e+00  -7.2778582620472338e-06 8.0807991780154327e-05 0.0000000000000000e+00  -5.0223382907720084e-03 6.4159274471156918e-04 0.0000000000000000e+00  3.9658229758646754e-04 1.2318342614012329e-03 0.0000000000000000e+00  2.8503770452405159e-04 6.1491287410884987e-04 0.0000000000000000e+00  2.2671691697070747e-04 1.3688270833322943e-04 0.0000000000000000e+00  1.7009780889333583e-05 5.2240527021124313e-05 0.0000000000000000e+00  -3.4084223737079804e-04 -3.8268267480314898e-04 0.0000000000000000e+00  1.1084860581900891e-04 -2.2610310713464934e-04 0.0000000000000000e+00  -2.3521737348350478e-03 1.5826991051236188e+00 0.0000000000000000e+00  1.8083750049388420e-02 1.8790891605197788e-01 0.0000000000000000e+00  -1.1657440265783520e-02 1.7090149038797295e+00 0.0000000000000000e+00  9.5291562280003291e-03 2.1167766077614445e+00 0.0000000000000000e+00  1.5475060453530164e-03 -1.0690377521936107e-04 0.0000000000000000e+00  4.2789513713143817e-04 -7.7585970542296510e-04 0.0000000000000000e+00  -2.0901761154169991e-04 -5.3389924701061401e-04 0.0000000000000000e+00  -5.9071450740460019e-06 -2.8261133741854979e-05 0.0000000000000000e+00  6.6049936334883610e-02 9.0605766268615895e-01 0.0000000000000000e+00  6.8235970636934831e-02 -1.8032310361349311e+00 0.0000000000000000e+00  7.2683827805678100e-02 5.2880327066759414e-01 0.0000000000000000e+00  -6.1259908112554738e-02 1.8081598835191430e+00 0.0000000000000000e+00  -2.5061764910973898e-05 -8.2016885772892524e-04 0.0000000000000000e+00  -3.7152057033644855e-04 -1.0988564660555191e-03 0.0000000000000000e+00  3.8265159321534070e-01 2.0868913146440908e+00 0.0000000000000000e+00  -8.4989359854521329e-02 1.8368863729650682e+00 0.0000000000000000e+00  -7.8967303623085280e-03 1.7947948880794438e+00 0.0000000000000000e+00  9.0903822895441258e-02 1.4751972467892280e+00 0.0000000000000000e+00  8.0218377345655817e-02 -7.2919259403859804e-01 0.0000000000000000e+00  -6.6662784857928148e-02 -1.3979419773378099e+00 0.0000000000000000e+00  3.4651485372683988e-01 2.8781701453638293e+00 0.0000000000000000e+00  -4.4252156450151309e-01 2.6796358316842559e+00 0.0000000000000000e+00  -3.4859597566187110e-02 -1.2808600418089833e+00 0.0000000000000000e+00  1.0172067401841099e-02 1.4052029966429784e+00 0.0000000000000000e+00  -1.3142804274486679e-02 1.3664665439493808e+00 0.0000000000000000e+00  -6.4046796146870033e-02 -1.9147441835941970e+00 0.0000000000000000e+00  9.5259431784007575e-01 2.8148790533069259e+00 0.0000000000000000e+00  -2.5046867465317130e-01 2.1704600900192603e+00 0.0000000000000000e+00  5.6776382050470899e-02 6.1531806592051919e-01 0.0000000000000000e+00  6.0663203854353252e-03 1.1269839327690896e+00 0.0000000000000000e+00  1.6842667221073757e-01 -9.2196583672861465e-01 0.0000000000000000e+00  -1.1104464578114348e-01 -3.8808892595542149e-01 0.0000000000000000e+00  1.3185806422680371e-01 6.3915988429439241e-02 0.0000000000000000e+00  -1.0828873392329030e-01 -1.3932916697055253e+00 0.0000000000000000e+00  -9.0887846177186302e-02 -4.2954512372242154e-01 0.0000000000000000e+00  -1.1122525585082352e-01 -1.5148885942071817e+00 0.0000000000000000e+00  -2.2061079805337357e-02 1.9142889213262471e+00 0.0000000000000000e+00  2.2598296146130594e-02 -1.4955614779946655e+00 0.0000000000000000e+00  1.5789338545247132e-02 -1.0252598398491969e-01 0.0000000000000000e+00  9.7577259882820133e-06 -3.0369903986844954e-06 0.0000000000000000e+00  3.0177827319313538e-02 -5.3021471747684146e-01 0.0000000000000000e+00  5.7970926209674929e-02 1.4492696120868074e+00 0.0000000000000000e+00  6.9424011208723776e-04 -8.3932093421258366e-04 0.0000000000000000e+00  5.7755089996249766e-02 1.5667708838415451e+00 0.0000000000000000e+00  5.0770043329997391e-02 5.8602363353375087e-01 0.0000000000000000e+00  4.1348280510868009e-02 -1.4581751650643002e+00 0.0000000000000000e+00  1.2915598439247411e-01 -5.3795329394406655e-01 0.0000000000000000e+00  -1.1578849256431144e-01 1.7200221712113080e+00 0.0000000000000000e+00  4.8542925091766595e-02 -1.5237303862959461e+00 0.0000000000000000e+00  -1.6476614306179756e-02 -1.6122201159432539e+00 0.0000000000000000e+00  4.6902330473070367e-02 1.2137271109232861e+00 0.0000000000000000e+00  1.4232152523083279e-03 -1.8011435084164186e-05 0.0000000000000000e+00  3.1402752951488950e-03 -1.1104907539970347e-03 0.0000000000000000e+00  -6.0429546140903926e-04 -9.1063789369004986e-04 0.0000000000000000e+00  1.8633775682435010e-02 5.2864745614454389e-01 0.0000000000000000e+00  5.6986533520894849e-03 -1.1667819601253229e+00 0.0000000000000000e+00  1.5541128993795261e-01 -1.5917290757965399e+00 0.0000000000000000e+00  2.3503640347504126e-01 -1.1446529381529396e+00 0.0000000000000000e+00  3.5832667047401958e-04 -9.5472074198613306e-04 0.0000000000000000e+00  2.0953457086225852e-01 2.3406862422298911e+00 0.0000000000000000e+00  6.2063178749098113e-01 -1.5740872173189770e+00 0.0000000000000000e+00  4.0788317949645564e-01 -3.9066470604778858e-01 0.0000000000000000e+00  -2.0176441649482690e-01 3.5082192207907226e-01 0.0000000000000000e+00  -1.0068228477467324e-01 1.9163070749509508e+00 0.0000000000000000e+00  8.8637520508292884e-04 -2.7790522269933017e-04 0.0000000000000000e+00  -1.6930073251739852e-03 -2.0537919918299274e-04 0.0000000000000000e+00  1.1102312181916578e-03 -1.1541627592951298e-04 0.0000000000000000e+00  -6.3690231647372825e-04 -4.7452359577328452e-04 0.0000000000000000e+00  -9.2340250757870252e-04 -6.2906215984889996e-04 0.0000000000000000e+00  -6.8801931576258470e-03 1.3729731700849225e-04 0.0000000000000000e+00  5.8602609226740207e-04 -6.0647879210922980e-04 0.0000000000000000e+00  -1.3479809986693630e-02 -8.9347775286737574e-01 0.0000000000000000e+00  -1.4257311227703772e-02 -1.9325081650232396e+00 0.0000000000000000e+00  4.6807355353153661e-02 -1.0135892151012886e+00 0.0000000000000000e+00  -5.5894203955141400e-02 1.2312209592921981e+00 0.0000000000000000e+00  -4.9524188986909429e-03 -1.7786579487798642e+00 0.0000000000000000e+00  -2.4137291972480733e-02 6.9895411371716809e-01 0.0000000000000000e+00  -1.2930706604236761e+00 -3.8078585113240049e-01 0.0000000000000000e+00  -3.2892640812008478e-01 -9.2675260187429465e-01 0.0000000000000000e+00  3.3962737116327239e-02 1.5782415646472711e-01 0.0000000000000000e+00  6.1705518642039207e-02 -2.1136925599179873e-01 0.0000000000000000e+00  -6.7723714761701492e-01 -9.8869785252450304e-01 0.0000000000000000e+00  -1.1335698461086913e-01 1.7436535751750715e+00 0.0000000000000000e+00  3.5746433599844446e-02 -6.0119247529892050e-01 0.0000000000000000e+00  7.6534496181371146e-05 -3.2378656778368184e-04 0.0000000000000000e+00  1.0922640818149409e-06 -9.6674120860426502e-07 0.0000000000000000e+00  -7.0176397609523336e-02 1.9026422442339175e+00 0.0000000000000000e+00  1.8410745494052183e-01 1.0560883990480983e-01 0.0000000000000000e+00  -2.5013103288616911e-01 -1.6064307674881002e+00 0.0000000000000000e+00  -4.0569653215256109e-02 1.1688306350157114e+00 0.0000000000000000e+00  5.6157847503936531e-01 -4.9332657816239821e-02 0.0000000000000000e+00  6.6357768000100098e-02 -8.8257042026484145e-01 0.0000000000000000e+00  -1.9556246044151387e-02 -1.7386338369146086e+00 0.0000000000000000e+00  -8.2912760447380926e-02 1.5884217220148498e+00 0.0000000000000000e+00  -1.6906476653379345e-03 2.2012223803007451e+00 0.0000000000000000e+00  4.9759315908865745e-02 -9.8899655771138606e-01 0.0000000000000000e+00  4.5563848108991544e-03 -1.6585783165720702e+00 0.0000000000000000e+00  9.1702472596775636e-02 5.2756922264488204e-01 0.0000000000000000e+00  -4.5748799974986036e-02 -1.1102406688237898e+00 0.0000000000000000e+00  3.3145694721419837e-02 -1.0544816333828668e+00 0.0000000000000000e+00  6.0225820222837470e-02 -7.9909820243794516e-01 0.0000000000000000e+00  -1.7920483983375454e-01 -1.6281495451607726e+00 0.0000000000000000e+00  8.8484999182441695e-02 -9.4336438226757535e-01 0.0000000000000000e+00  -5.0703462555002646e-02 1.5061832088323013e+00 0.0000000000000000e+00  2.0369247160082307e-01 1.5083632028106062e+00 0.0000000000000000e+00  1.3139622337677397e-02 -1.7506201854777301e+00 0.0000000000000000e+00  2.9327949836483813e-03 -9.6051107823112181e-01 0.0000000000000000e+00  3.3478327139226847e-02 4.2568028945121295e-01 0.0000000000000000e+00  1.0756495321456980e+00 2.1498811465563592e+00 0.0000000000000000e+00  1.2913183753967632e+00 -5.0608288514980282e-01 0.0000000000000000e+00  -5.7673719117140954e-01 -2.3382638596036276e-01 0.0000000000000000e+00  -1.8756346038369670e-01 1.3876608478939336e+00 0.0000000000000000e+00  -4.6479576541906181e-01 1.7426694039443336e+00 0.0000000000000000e+00  -1.5815311701829840e-01 -1.6919188794113769e+00 0.0000000000000000e+00  1.1000415758969988e-01 8.0116672505078457e-01 0.0000000000000000e+00  -1.7321523110664822e-01 -1.1049471332524101e+00 0.0000000000000000e+00  7.8027835175045551e-02 -9.9256030044945331e-01 0.0000000000000000e+00  -1.3677158226446167e+00 1.0866436587422292e+00 0.0000000000000000e+00  4.0958072682240144e-02 5.1663800357483869e-01 0.0000000000000000e+00  7.4008999708734938e-02 1.0423161457179773e+00 0.0000000000000000e+00  -4.9526333519518774e-02 -1.6208470337724967e+00 0.0000000000000000e+00  -1.3992396444085391e-02 -1.5305457565071428e+00 0.0000000000000000e+00  2.8640161310507121e-02 -8.1507224680020096e-01 0.0000000000000000e+00  2.9093453768273683e-02 1.0105500232950533e+00 0.0000000000000000e+00  2.4846634320158725e-02 -9.6387713789830343e-01 0.0000000000000000e+00  4.3728872095687210e-02 -4.3636783800424450e-01 0.0000000000000000e+00  -1.1511045500405494e-01 2.3700524499775444e+00 0.0000000000000000e+00  -6.9472638388763594e-02 -1.6116387062648476e+00 0.0000000000000000e+00  1.4479902047720664e-02 2.0051196796405075e+00 0.0000000000000000e+00  -8.2613239578002762e-01 1.6463506937041870e+00 0.0000000000000000e+00  2.8405104307243436e-02 7.4683053957164314e-01 0.0000000000000000e+00  4.4658861788292747e-01 2.0835871847326897e+00 0.0000000000000000e+00  -3.7040308309673933e-02 1.3226487216226890e+00 0.0000000000000000e+00  9.2919151579415726e-03 -1.2963215493847762e+00 0.0000000000000000e+00  1.1904736529489171e-01 -9.3967295652816707e-01 0.0000000000000000e+00  -1.1150215739738757e-01 -1.6407757929643210e+00 0.0000000000000000e+00  -5.5636925747951045e-02 -1.9361096618384868e+00 0.0000000000000000e+00  -1.2592165457325624e-02 -9.3204964093852216e-01 0.0000000000000000e+00  1.1850262488266335e-01 -1.5066008350852147e+00 0.0000000000000000e+00  1.6820900969967609e-01 -1.4890634098168365e-01 0.0000000000000000e+00  2.5082174944815121e-02 -1.3468894133951663e+00 0.0000000000000000e+00  -1.5520263388678027e-01 1.7160703580259271e+00 0.0000000000000000e+00  -4.0707751819701696e-02 1.6510215989416959e+00 0.0000000000000000e+00  5.5280872634296992e-02 -1.3000205487025778e+00 0.0000000000000000e+00  1.6461307072851653e-02 -7.7979768003933747e-01 0.0000000000000000e+00  3.4198646927637182e-02 -1.3883404047446355e+00 0.0000000000000000e+00  -8.5042302288190527e-02 1.5564456574831584e+00 0.0000000000000000e+00  2.9808712154610767e-01 -2.4559073557845881e-01 0.0000000000000000e+00  -3.7924029497507408e-02 -5.8624024801144992e-01 0.0000000000000000e+00  2.7969683631997794e-01 -7.8984702038324239e-01 0.0000000000000000e+00  -1.9883421288132200e-01 1.8488616279355869e+00 0.0000000000000000e+00  -2.8883070024818144e-02 -1.5472896698073140e+00 0.0000000000000000e+00  -9.1089973953981251e-01 2.4635547017884241e+00 0.0000000000000000e+00  1.0489530162626194e-01 1.7106613043128016e+00 0.0000000000000000e+00  7.0924583179739935e-04 -6.7033115591776831e-04 0.0000000000000000e+00  9.9617941432086465e-02 -1.4157336167718946e+00 0.0000000000000000e+00  1.2377837696237505e-03 -2.0039528486896736e+00 0.0000000000000000e+00  4.7537567817167214e-01 -1.3943307989916556e+00 0.0000000000000000e+00  2.0896893880831305e-01 -3.0329484032811083e-01 0.0000000000000000e+00  -7.7797638905335203e-04 -6.4657058717644371e-04 0.0000000000000000e+00  -2.3793894657053771e-01 -1.2598296213683366e+00 0.0000000000000000e+00  4.8941540513902583e-04 4.1601503764809281e-04 0.0000000000000000e+00  2.8273209948308597e-01 5.4331200699366966e-01 0.0000000000000000e+00  1.2612818985522293e-03 -7.0547565666848243e-05 0.0000000000000000e+00  -3.4988168649257597e-04 -8.9221976017278917e-04 0.0000000000000000e+00  -1.1730085353503955e-01 -1.0649741772766280e-01 0.0000000000000000e+00  1.0163302676935571e-02 -2.8829751137845829e-02 0.0000000000000000e+00  -1.1314457827742623e-01 1.6370941263515215e+00 0.0000000000000000e+00  -7.7384773385240815e-02 -1.2305880588670803e+00 0.0000000000000000e+00  7.5268029253260033e-03 -8.1582954490711668e-01 0.0000000000000000e+00  -1.0026499317435558e-01 1.9259169529460325e+00 0.0000000000000000e+00  6.2821721973976910e-02 1.9098045083150832e+00 0.0000000000000000e+00  1.4754441118766060e-02 4.2619380312624161e-01 0.0000000000000000e+00  1.4915653362485641e-02 2.0378903375829189e+00 0.0000000000000000e+00  1.7800575666193377e-02 -1.4845455754042752e-01 0.0000000000000000e+00  2.4030496870210596e-02 -1.6619989696983677e+00 0.0000000000000000e+00  2.5905318622039292e-01 1.8654428421968221e+00 0.0000000000000000e+00  8.6491467943190015e-01 -2.3501905950841537e-01 0.0000000000000000e+00  3.0983627067972025e-01 -5.1289341452667547e-01 0.0000000000000000e+00  1.8022232343396255e-02 -1.1468807508996366e+00 0.0000000000000000e+00  -1.4702938098233889e-02 1.9746715531161401e+00 0.0000000000000000e+00  5.9497530188297055e-03 1.3287560454667178e+00 0.0000000000000000e+00  -2.0595828174567184e-02 -1.1829807275333302e+00 0.0000000000000000e+00  2.4430050410038301e-01 1.6131779984200698e+00 0.