<?xml version="1.0"?>
<VTKFile type="UnstructuredGrid"  version="0.1"  >
<UnstructuredGrid>
<Piece  NumberOfPoints="4835" NumberOfCells="9296">
<Points>
<DataArray  type="Float64"  NumberOfComponents="3"  format="ascii">0 1.5 0  -0 0.1307014797437256 0  0.01134725726173103 0.1483581566929452 0  0.04283342385313163 0.181379897845022 0  0.08000000000000007 0.2078460969082653 0  0.1215036888038188 0.2268001964915204 0  0.1658444388144116 0.2375571460514239 0  0.2114196597976982 0.2397281614039219 0  0.2565821445222626 0.23323477639765 0  0.2996996031204527 0.2183116788850844 0  0.3392136582970876 0.1954982284920806 0  0.3736961691452169 0.1656189627557069 0  0.4019008478794835 0.1297537961893434 0  0.4059948616314525 0.1218125174167552 0  0.4254856317806581 0.1498156710261111 0  0.4592156240140376 0.1818784194956707 0  0.498709345141744 0.2064950441012706 0  0.5423499175804942 0.222657737339227 0  0.588350691167096 0.2297047966493422 0  0.6348283888260526 0.2273477145954656 0  0.6798802081543086 0.2156829903938285 0  0.7216617223752013 0.1951881792237927 0  0.7584623913874079 0.1667023410626976 0  0.7879811633353602 0.1323170874919288 0  0.8152477706948351 0.1684239109116393 0  0.849341340905186 0.1995043068200599 0  0.8885654110558655 0.2237908228387656 0  0.9315842524819793 0.2404564107932048 0  0.9769329101341745 0.2489335440737586 0  1.023067089865825 0.2489335440737586 0  1.068415747518021 0.2404564107932048 0  1.111434588944135 0.2237908228387656 0  1.150658659094814 0.1995043068200599 0  1.184752229305165 0.1684239109116393 0  1.212554283932403 0.1316080407193389 0  1.233118057351089 0.09031041654678823 0  1.245743274920975 0.04593737945414259 0  1.25 0 0  1.36108673858246 0 0  1.36108673858246 0.02281345039300389 0  1.369721686332521 0.06761581364194322 0  1.386679492322819 0.1099743652145785 0  1.411347257261731 0.1483581566929452 0  1.442833423853132 0.181379897845022 0  1.48 0.2078460969082653 0  1.521503688803819 0.2268001964915204 0  1.565844438814412 0.2375571460514239 0  1.611419659797698 0.2397281614039219 0  1.656582144522263 0.23323477639765 0  1.699699603120453 0.2183116788850844 0  1.739213658297088 0.1954982284920806 0  1.765497292517293 0.1727233297951148 0  1.79 0.1905255888325765 0  1.832016261237511 0.2092324335849338 0  1.877003738081116 0.2187948169810202 0  1.922996261918884 0.2187948169810201 0  1.967983738762488 0.2092324335849338 0  2.01 0.1905255888325765 0  2.047208733398949 0.1634918616050267 0  2.077983738762488 0.1293127555043441 0  2.087980221556173 0.1119983394086949 0  2.111347257261731 0.1483581566929452 0  2.142833423853131 0.181379897845022 0  2.18 0.2078460969082653 0  2.221503688803819 0.2268001964915204 0  2.265844438814411 0.2375571460514239 0  2.311419659797698 0.2397281614039219 0  2.356582144522263 0.23323477639765 0  2.399699603120453 0.2183116788850844 0  2.439213658297088 0.1954982284920806 0  2.457172785224357 0.179936556425434 0  2.459215624014038 0.1818784194956707 0  2.498709345141744 0.2064950441012706 0  2.542349917580494 0.222657737339227 0  2.588350691167096 0.2297047966493422 0  2.634828388826053 0.2273477145954656 0  2.679880208154309 0.2156829903938285 0  2.721661722375202 0.1951881792237927 0  2.758462391387408 0.1667023410626976 0  2.788775591477674 0.1313916894718022 0  2.811360296672653 0.09070184667606328 0  2.825291886488074 0.04629865962039181 0  2.83 0 0  3 0 0  3 1.5 0  0 0.8023345134541607 0  0.4157402467060553 0.1358140942214332 0  3 0.75 0  1.5 1.5 0  0 0.4665179965989431 0  3 0.375 0  0 0.2986097381713344 0  0 0.21465560895753 0  0 0.1726785443506278 0  0 0.1516900120471767 0  2.25 1.5 0  0.75 1.5 0  1.169989811679434 0.9093651732355621 0  1.875 0.9142758100523694 0  0.5779365036100435 0.9330077223331824 0  2.43246936225428 0.7976868957014953 0  3 1.125 0  2.625 1.5 0  0.375 1.5 0  0 1.15116725672708 0  1.449253057879235 0.6213873587688492 0  0.7697361971202799 0.5943793911944208 0  0.3630076616442724 0.6080350564914153 0  2.069570984533324 0.5812833454367354 0  1.875 1.5 0  1.125 1.5 0  2.4375 1.173854331507092 0  0.8831005780031504 1.150004411874495 0  1.52207987625039 0.9714054497350916 0  2.0625 1.207137905026185 0  1.107793318688589 0.5766433232347881 0  1.3125 1.2274095306559 0  2.729985961523573 0.9375 0  2.711750443384031 0.5625 0  1.6875 1.243073622519403 0  1.760894209596057 0.6242614373612321 0  0.2643049832376852 0.9767508850906206 0  0.4566194854768236 1.209399638766609 0  2.728217267602858 1.228217267602858 0  2.374499195658668 0.518153287180279 0  2.169650674143702 0.9320836008992801 0  0.8550719231757007 0.8663457099410541 0  1.303567858855371 0.4078893824383345 0  0.2133194436665546 1.297827371069245 0  0.5308017499037517 0.4517023193912283 0  1.083077097725883 1.270382833575872 0  0.6830238102386342 1.274223132985906 0  2.250983943328481 0.6895458766515071 0  1.81089184968521 0.4192208869708923 0  1.679274712803154 0.8238291020339636 0  1.5785148524717 0.4510287526682343 0  0 0.6344262550265519 0  0.2138866804674432 0.765685327335986 0  0.5683532856219899 0.6602211278972628 0  0.9375 1.5 0  0.93201471049342 0.4568525359126817 0  1.262687644113192 0.7198627504483751 0  0.4154000952342595 0.8069446327163143 0  0.2139559556345817 0.4540330649264536 0  2.06977986811652 0.3813318272583126 0  0.7200651071201811 0.4061566188086219 0  1.932157822851692 0.7243325602448901 0  0.9441947922338874 0.689010158618046 0  3 1.3125 0  2.8125 1.5 0  0.5625 1.5 0  1.865575888969794 1.126762336039809 0  1.691368628814911 1.054521333692312 0  2.243682835689564 1.11932177110543 0  2.294933652681559 1.30886281903233 0  2.4375 1.5 0  2.385653526545621 0.9864303388879195 0  2.560603055863368 1.320052196970997 0  2.605098352881707 1.08210421072607 0  2.797310903081369 0.7462827406561878 0  1.497248537655819 1.30111187331848 0  1.6875 1.5 0  3 0.5625 0  3 0.9375 0  1.3125 1.5 0  2.0625 1.5 0  3 0.1875 0  0.1875 1.5 0  0.9978323986844071 0.9954535003819682 0  0.7455388243606953 1.020382929522352 0  1.904625246064701 1.312514164033404 0  1.15622562020362 1.097022204090454 0  1.332774827327096 1.015638362851981 0  2.617489052932561 0.7904306825848915 0  2.798834931624827 0.3810601956207291 0  2.518702939674024 0.6340258449062608 0  1.42862153170688 0.8082655083169574 0  2.016051725629557 1.02698392558818 0  2.557580898838836 0.4303899543284488 0  0.9143579924460792 1.324371521638632 0  0.6907201107072946 0.792483910827579 0  0 1.32558362836354 0  0 0.9767508850906206 0  0.6046140448732628 1.120294499938289 0  1.129353874055204 0.4037183319394277 0  2.240578803971554 0.4086758810341738 0  1.544887400155686 1.138911442832316 0  2.828734594747712 1.083464790593587 0  0.401358428169992 0.3487630281226344 0  0.1737226743516005 1.126953194380642 0  1.219293394173851 1.36370476532795 0  2.095593203128485 0.7438044944874065 0  1.099947866649755 0.7404984974094087 0  0.4225987016856009 0.9654760294046846 0  1.265404984472296 0.5615537191035901 0  1.908099381276504 0.55154028811489 0  1.605233217264331 0.6055204891939014 0  0.2070403235706232 0.6098576665994301 0  0.46875 1.369568887475175 0  2.529999076220762 0.9220559311443081 0  0.3296306516835505 1.118561581461605 0  2.136891098712708 1.353568952513092 0  0.1250262355603041 0.8895426992723907 0  2.286468869522623 0.8363516131379349 0  2.03024950667879 0.8782110935537075 0  2.71875 1.380113023166798 0  2.851157149000174 1.312122703709591 0  2.855875221692015 0.6072101925796368 0  1.766081959310164 1.371536811259701 0  2.417227117459742 0.3724437385102629 0  1.365276810157265 1.363519047380362 0  1.451310499971155 0.3640091006357036 0  2.211012611580202 0.5503989260541815 0  1.306789156675977 0.2570819477057019 0  2.872418607762505 0.256220469598872 0  2.896902016958361 0.84375 0  0.6487095286926469 0.5256523827174592 0  1.021477811485347 1.13286821063065 0  1.622350554793597 1.371881362989231 0  1.297557547403682 0.854343314165958 0  0.5529398034156436 0.7974238691464364 0  1.000783388185185 0.848708117631217 0  0.8152141294141361 0.735251676415229 0  2.383386472338196 0.654760318649699 0  1.031024064601143 1.39833771698851 0  1.812756223744312 0.7919737740986065 0  2.902150447032281 0.46875 0  1.558478314279628 0.7430881247578319 0  2.428095049619715 1.306700780290589 0  0.3309906154406318 1.369459454266083 0  0.117457385934373 0.361895434578648 0  0.4016309285334721 0.4812757168525422 0  1.933925005895449 0.3564723397117748 0  0.7479761182598068 1.155601287121883 0  0.09711831342126455 1.23837544254531 0  1.384025258268523 0.5094422387329146 0  2.188092881729461 1.235445092789212 0  0.116614462422195 1.388212202394539 0  0.5993432477835932 1.374610260003488 0  0.8731519049868882 1.022757560732678 0  0.1109021857268646 0.5275252102504697 0  1.703820060431276 0.5017282682884084 0  0.1118224159219883 0.6921053365242938 0  0.3267069786561488 1.244030051070764 0  2.878127312164905 0.9679608000003684 0  1.408346090782441 1.129729637108486 0  0.8047358880839842 0.3153623688883521 0  2.6405066654848 0.6664933064830099 0  0.4805702216488833 1.081724858267193 0  2.668084598222495 0.3562155878484895 0  2.138121375887776 1.052804865904559 0  1.96875 1.5 0  0.4891907154726056 0.5668366043293971 0  0.1473863332166031 1.0086557402922 0  2.558860649578938 1.196592162044302 0  1.717555244640741 0.3396535732296396 0  0.84375 1.5 0  0.7839942032523698 1.367093097528149 0  3 1.40625 0  2.484124862262918 1.060073596740424 0  3 1.21875 0  2.34375 1.5 0  0.8196209764267471 1.251369088398821 0  2.023202270335131 1.319214170177879 0  0.5721208504581607 1.233781127425821 0  1.984735816620384 0.462442873488178 0  0.6955333931194808 0.9118686683832042 0  1.19123464962554 1.213906677421382 0  0.8929803638185398 0.5752987850534633 0  1.566736823664244 0.8614646887466211 0  1.808684073906441 1.017786844668201 0  1.719105195888173 0.9374041347540488 0  1.671476674178274 0.70476362875428 0  1.218260709491531 0.330629071498573 0  2.839021519587611 1.19788439058923 0  0.5170070740021471 0.3361933937254621 0  1.393527188254162 0.91788143976
[...]
<PointData  Vectors="f_60"> 
<DataArray  type="Float64"  Name="f_60"  NumberOfComponents="3" format="ascii">-1.9940062504521599e-04 -2.1210187089568065e-04 0.0000000000000000e+00  1.2154195192548110e-05 -2.6473352369061216e-04 0.0000000000000000e+00  1.5794348477054054e-04 -8.1974447199884882e-05 0.0000000000000000e+00  2.1069446558149129e-04 1.1505972399911772e-04 0.0000000000000000e+00  3.3951445819044408e-05 2.4901679245978141e-04 0.0000000000000000e+00  -2.6807773204065870e-04 3.4222361755836036e-04 0.0000000000000000e+00  6.4033438697619479e-05 5.8915612203539142e-04 0.0000000000000000e+00  5.0945542678480272e-04 4.0548821744455581e-04 0.0000000000000000e+00  -2.1469193134647741e-04 1.3875631165097954e-04 0.0000000000000000e+00  2.1857703449062148e-04 1.3313326705251269e-04 0.0000000000000000e+00  -6.7647310661176876e-05 3.5155469165849877e-04 0.0000000000000000e+00  -2.1213820424799876e-04 5.5513898223432843e-04 0.0000000000000000e+00  5.0052601575445248e-04 -2.2653530003277145e-04 0.0000000000000000e+00  5.8058806226056350e-04 1.4811233764287696e-05 0.0000000000000000e+00  9.2001470040220277e-05 3.4949265579717705e-04 0.0000000000000000e+00  -2.0457069386865660e-04 2.6139564887674291e-04 0.0000000000000000e+00  2.8698493138209396e-04 6.1480355593385931e-04 0.0000000000000000e+00  2.5587466379560844e-04 3.6244999396397719e-04 0.0000000000000000e+00  -1.2141059525596922e-04 1.1313826805918328e-04 0.0000000000000000e+00  2.1115544257616781e-04 7.3138099166152154e-05 0.0000000000000000e+00  -2.8616191575251370e-04 4.9850362229243651e-04 0.0000000000000000e+00  5.7493051309773250e-05 4.6580888215391205e-04 0.0000000000000000e+00  -5.0915473257712807e-05 3.6563797161216983e-04 0.0000000000000000e+00  -3.4063699036241237e-04 1.9151540946370994e-04 0.0000000000000000e+00  1.8296339558948970e-04 5.4313680584480327e-04 0.0000000000000000e+00  3.4275521085121006e-04 4.0409318465769154e-04 0.0000000000000000e+00  -1.9160947017992698e-04 7.3882425549389572e-05 0.0000000000000000e+00  -1.9264133014683941e-05 9.8063677622574791e-05 0.0000000000000000e+00  -2.3998339660497785e-04 3.7137046993949882e-04 0.0000000000000000e+00  -1.2430098479502180e-04 4.3706458866114118e-04 0.0000000000000000e+00  3.4721084631673119e-04 3.9676771581063030e-04 0.0000000000000000e+00  -1.0454297475245352e-04 2.5463892974148645e-04 0.0000000000000000e+00  6.3328032895916379e-05 2.7715051365108793e-05 0.0000000000000000e+00  9.3065818652806194e-05 -8.8986749767720299e-05 0.0000000000000000e+00  -1.4774928312817477e-04 1.3743251247249068e-04 0.0000000000000000e+00  -2.7053935949285387e-04 3.8058532160901000e-04 0.0000000000000000e+00  1.2298352022721294e-04 5.4547988755286581e-04 0.0000000000000000e+00  2.4859578186327611e-04 4.4558780602504657e-04 0.0000000000000000e+00  1.6840488459364639e-04 2.9742902034485296e-04 0.0000000000000000e+00  8.7615860098189658e-05 3.1119536838908281e-04 0.0000000000000000e+00  -2.0717138816251718e-05 2.3113295175445991e-04 0.0000000000000000e+00  -2.2124045747630189e-04 1.3253307871278596e-04 0.0000000000000000e+00  -2.2694622703016612e-06 4.4784689655120790e-04 0.0000000000000000e+00  2.2671175458423791e-04 5.7319866060811999e-04 0.0000000000000000e+00  -8.3757082177470833e-05 1.5457430108859908e-04 0.0000000000000000e+00  -4.6738251718151401e-05 1.2492525521623504e-04 0.0000000000000000e+00  3.5377787445787270e-05 1.8102360504099868e-04 0.0000000000000000e+00  -4.4066584609219953e-04 5.0051054729129899e-04 0.0000000000000000e+00  3.9991151390229531e-04 4.2313977464370866e-04 0.0000000000000000e+00  2.5886087303166711e-04 2.6567293218794375e-04 0.0000000000000000e+00  -2.5920635122029536e-04 6.1520975598319409e-05 0.0000000000000000e+00  -1.2183530503145629e-04 1.9977119057768819e-04 0.0000000000000000e+00  -7.2642652180688095e-06 1.7717482489911887e-04 0.0000000000000000e+00  1.1915761411894756e-04 2.3733936216412176e-04 0.0000000000000000e+00  4.8332479055391892e-06 2.5684823988443903e-04 0.0000000000000000e+00  -4.3678653594112857e-05 5.2408081475392471e-04 0.0000000000000000e+00  4.1243480921297906e-04 3.7378101343431400e-04 0.0000000000000000e+00  5.1421799482431999e-05 7.8663275202857087e-05 0.0000000000000000e+00  -2.1212286365428798e-04 8.1398305109839394e-05 0.0000000000000000e+00  -1.9216833154271735e-04 1.1891236381666426e-04 0.0000000000000000e+00  -8.1746918464055434e-05 1.5170056292704068e-04 0.0000000000000000e+00  -1.4567728645871879e-04 1.4813516266903005e-04 0.0000000000000000e+00  2.7432230834440423e-04 1.8174020010852706e-04 0.0000000000000000e+00  2.7845616251218048e-04 2.4086321138577614e-04 0.0000000000000000e+00  -3.7414681211640218e-04 2.3291772588013781e-04 0.0000000000000000e+00  1.6508416746979914e-04 4.8271105932863801e-04 0.0000000000000000e+00  3.3796351246727683e-04 4.2496676036335988e-04 0.0000000000000000e+00  -1.0004031767946380e-04 1.1070386905633007e-04 0.0000000000000000e+00  7.2759233088383649e-05 7.8373765214895195e-05 0.0000000000000000e+00  2.0589504168667282e-04 7.2574723098469502e-04 0.0000000000000000e+00  -3.5376104920339853e-04 5.1641595963406838e-04 0.0000000000000000e+00  1.3968737607023241e-03 4.0805253106913382e-04 0.0000000000000000e+00  2.8064106411803324e-04 4.7311388044320586e-04 0.0000000000000000e+00  1.2548598757637877e-04 3.2665896002573454e-04 0.0000000000000000e+00  3.5652928001401346e-04 2.7610065703181382e-04 0.0000000000000000e+00  1.3243593964254138e-04 -5.7803998792716003e-05 0.0000000000000000e+00  5.9744127119890186e-04 -5.6890788276619652e-04 0.0000000000000000e+00  7.2329737090706740e-05 -6.7598892620620015e-04 0.0000000000000000e+00  -5.7960046433138638e-04 -2.6868839976332756e-05 0.0000000000000000e+00  -7.8224972673528081e-05 1.2469621540675958e-04 0.0000000000000000e+00  3.9092073621904613e-04 -2.2766602460606652e-04 0.0000000000000000e+00  3.1507612193936037e-04 -2.0850943156792168e-04 0.0000000000000000e+00  2.0329596585716314e-04 -8.5579952877902940e-05 0.0000000000000000e+00  -3.7240881257030534e-03 5.2958387966837799e-04 0.0000000000000000e+00  8.9736198920970195e-04 7.5015895455484425e-04 0.0000000000000000e+00  -9.1026524912010115e-07 -9.6197410247134035e-06 0.0000000000000000e+00  4.0918545215237636e-04 1.2473582151908795e-04 0.0000000000000000e+00  1.8127302056719093e-04 -6.9489114733895397e-05 0.0000000000000000e+00  1.1159415100790841e-04 -4.4766906961583332e-04 0.0000000000000000e+00  8.4943621239121032e-06 5.9128924714114716e-05 0.0000000000000000e+00  -1.2934781034418055e-03 2.0553596764853491e-04 0.0000000000000000e+00  1.3984966829662498e-04 3.6485948186266699e-04 0.0000000000000000e+00  1.6009409279366921e-04 2.6521350178176483e-04 0.0000000000000000e+00  1.9281605317762808e-04 7.4249617599146087e-05 0.0000000000000000e+00  6.3524712939625762e-05 -2.4584415774700133e-04 0.0000000000000000e+00  -3.4958432875767972e-05 -1.1334865333424501e-04 0.0000000000000000e+00  -2.5081938213064336e-05 -3.8461971761988921e-05 0.0000000000000000e+00  2.1273130522869010e-03 4.8667275675567928e-01 0.0000000000000000e+00  6.7105567743054378e-03 5.3350215927138595e-02 0.0000000000000000e+00  -2.4170496946823790e-06 5.2377999556653132e-01 0.0000000000000000e+00  -6.1872555257396758e-03 6.6243787975596491e-01 0.0000000000000000e+00  1.0849750582341046e-03 -7.3965925202848634e-05 0.0000000000000000e+00  -5.5010074480646800e-04 -3.4661777394167260e-04 0.0000000000000000e+00  1.9955556586870681e-04 -2.7557882391499397e-04 0.0000000000000000e+00  -1.6468260243891211e-05 3.4410982074061888e-05 0.0000000000000000e+00  1.6537746540354177e-02 2.9557772752921363e-01 0.0000000000000000e+00  1.8525672779549168e-02 -5.4873369569903618e-01 0.0000000000000000e+00  2.2038360760792332e-02 1.3830277899205984e-01 0.0000000000000000e+00  -2.5499269793331069e-02 5.4764964715006259e-01 0.0000000000000000e+00  1.3216139509673590e-04 -2.8504142115709134e-04 0.0000000000000000e+00  -2.0344969276221339e-04 -3.5418236632774860e-04 0.0000000000000000e+00  1.1397350764110829e-01 5.7023558017396891e-01 0.0000000000000000e+00  -2.0795542313343525e-02 5.5706228674170533e-01 0.0000000000000000e+00  -9.2607065038429587e-05 5.5171591859793434e-01 0.0000000000000000e+00  2.9064300678621976e-02 4.6889854786185275e-01 0.0000000000000000e+00  2.5733292868296346e-02 -2.0179896327402341e-01 0.0000000000000000e+00  -2.1923557950700525e-02 -4.1203162748990635e-01 0.0000000000000000e+00  8.3154403312943881e-02 8.5245398661681193e-01 0.0000000000000000e+00  -1.5698460735595307e-01 9.1660997699465196e-01 0.0000000000000000e+00  -1.2506827413386717e-02 -3.9988123664678399e-01 0.0000000000000000e+00  9.7391481211062895e-04 4.3636773051101935e-01 0.0000000000000000e+00  -1.1385308189234703e-03 4.1669233086427138e-01 0.0000000000000000e+00  -2.2059999878329385e-02 -5.9392945886996629e-01 0.0000000000000000e+00  2.7577345011678023e-01 7.7630889985420315e-01 0.0000000000000000e+00  -8.8160631915352505e-02 6.4916244593545724e-01 0.0000000000000000e+00  1.9833483081712278e-02 1.7531753702038233e-01 0.0000000000000000e+00  3.9510916445329135e-03 3.4841923713410150e-01 0.0000000000000000e+00  4.6891563568588368e-02 -3.3322988961240474e-01 0.0000000000000000e+00  -3.0678260016943820e-02 -1.5040351705742985e-01 0.0000000000000000e+00  3.7023015003792362e-02 5.3010198473809618e-02 0.0000000000000000e+00  -3.5279319767277738e-02 -4.4965635274452415e-01 0.0000000000000000e+00  -2.6859471171865101e-02 -1.0235309711327371e-01 0.0000000000000000e+00  -2.6812610596928996e-02 -4.6802026170452898e-01 0.0000000000000000e+00  -7.2692370143849312e-03 5.9219334544348046e-01 0.0000000000000000e+00  5.0307653232812321e-03 -4.5621451127854179e-01 0.0000000000000000e+00  2.1702018601336024e-03 -3.3958336690915553e-02 0.0000000000000000e+00  1.0456535004795539e-05 4.0356714171523126e-05 0.0000000000000000e+00  8.8563704401814509e-03 -1.5676335729833918e-01 0.0000000000000000e+00  1.8321827694577453e-02 4.5706439981728442e-01 0.0000000000000000e+00  5.0129971083591961e-04 -4.5218314967514618e-04 0.0000000000000000e+00  1.4514432452046566e-02 4.7110388982751167e-01 0.0000000000000000e+00  1.6121889299608769e-02 1.6309633888924019e-01 0.0000000000000000e+00  9.5891279416470132e-03 -4.5637830982994931e-01 0.0000000000000000e+00  3.3868880983109972e-02 -1.3779487611680075e-01 0.0000000000000000e+00  -3.7378101263678180e-02 5.0904672476208546e-01 0.0000000000000000e+00  1.4553115269028995e-02 -4.8343276442480693e-01 0.0000000000000000e+00  -3.1744223378450073e-03 -4.9509850515226650e-01 0.0000000000000000e+00  1.5181356449891374e-02 3.6145670257970308e-01 0.0000000000000000e+00  1.6127848942339607e-03 1.6622611696397069e-04 0.0000000000000000e+00  1.9636458946327418e-04 -2.5062549939659762e-04 0.0000000000000000e+00  -4.4872885169811694e-04 -4.8803514197726946e-04 0.0000000000000000e+00  8.1606756242653625e-03 1.5791560888484141e-01 0.0000000000000000e+00  3.1003599847699722e-04 -3.5756354183087879e-01 0.0000000000000000e+00  5.4570793451312286e-02 -4.8775058739318466e-01 0.0000000000000000e+00  7.3700164946284244e-02 -2.8693382985317306e-01 0.0000000000000000e+00  4.7227487933546481e-04 -5.2003348808310230e-04 0.0000000000000000e+00  5.5272505761250465e-02 7.3366387640392472e-01 0.0000000000000000e+00  1.9932781260164248e-01 -4.5058553899894649e-01 0.0000000000000000e+00  1.3681083517863651e-01 -1.8083102203047137e-03 0.0000000000000000e+00  -4.0800037198483727e-02 1.5808357445373381e-01 0.0000000000000000e+00  -2.5886779845612402e-02 5.9048895739879059e-01 0.0000000000000000e+00  2.6001170139835551e-04 -1.3183457594371093e-04 0.0000000000000000e+00  -2.8600309542024669e-04 -1.4326334967045969e-04 0.0000000000000000e+00  5.7674633587286668e-04 -5.5228140639515537e-05 0.0000000000000000e+00  -1.1742306107480884e-04 -1.8164310479884153e-04 0.0000000000000000e+00  -5.2581260847978822e-04 -4.6728916493606580e-04 0.0000000000000000e+00  -2.1528365980554415e-03 -2.1857437290152452e-04 0.0000000000000000e+00  1.8761661324980501e-04 -1.1882926145568396e-04 0.0000000000000000e+00  -5.5401553621893173e-03 -2.7004068384965407e-01 0.0000000000000000e+00  -7.6051587584413036e-03 -5.9408677551358058e-01 0.0000000000000000e+00  1.4694740484823459e-02 -3.1278821820520897e-01 0.0000000000000000e+00  -1.4164368603609687e-02 3.6693943614781960e-01 0.0000000000000000e+00  -4.7541888822885204e-03 -5.4460483925290293e-01 0.0000000000000000e+00  -8.9352803740432585e-03 2.0542416457684373e-01 0.0000000000000000e+00  -3.4855684153477740e-01 8.1236697702280064e-02 0.0000000000000000e+00  -8.3267305414203699e-02 -2.4326506065815356e-01 0.0000000000000000e+00  8.6481480013762234e-03 5.7518295081155392e-02 0.0000000000000000e+00  1.8118224579528844e-02 -4.6576143572580511e-02 0.0000000000000000e+00  -2.0079436522877114e-01 -3.8962603948751234e-01 0.0000000000000000e+00  -3.1457058863028811e-02 5.5159670418461770e-01 0.0000000000000000e+00  9.5727117331537472e-03 -1.9523213278985765e-01 0.0000000000000000e+00  4.4017328066455530e-06 -4.6526379182454507e-05 0.0000000000000000e+00  7.0454426687750298e-06 2.1289861298948323e-05 0.0000000000000000e+00  -1.6270767193971233e-02 5.8568950821757793e-01 0.0000000000000000e+00  5.5280226303239699e-02 7.6334309408593384e-02 0.0000000000000000e+00  -7.7175604088905878e-02 -4.9562228341264120e-01 0.0000000000000000e+00  -9.6646223908700753e-03 3.6712810164832921e-01 0.0000000000000000e+00  2.0025262251110379e-01 -1.0636833899064570e-01 0.0000000000000000e+00  1.9919897338227105e-02 -3.0507532350887440e-01 0.0000000000000000e+00  -7.3055313717802894e-03 -5.4285248383680385e-01 0.0000000000000000e+00  -2.4051163615574335e-02 5.1338735076697806e-01 0.0000000000000000e+00  -6.1540218321617874e-03 6.8010863596749294e-01 0.0000000000000000e+00  1.4504910189306023e-02 -2.9312387881142749e-01 0.0000000000000000e+00  -1.0894209896219499e-03 -5.1046150596907791e-01 0.0000000000000000e+00  2.9343683714148420e-02 1.2933498328178705e-01 0.0000000000000000e+00  -1.3163342632287148e-02 -3.3431370850893150e-01 0.0000000000000000e+00  8.0663643607285576e-03 -3.3103822274611017e-01 0.0000000000000000e+00  1.6455790686298408e-02 -2.3208923348564411e-01 0.0000000000000000e+00  -5.8314287000581978e-02 -5.1078203968946212e-01 0.0000000000000000e+00  4.6859143084450494e-02 -2.9893788702648405e-01 0.0000000000000000e+00  -1.1483277058709695e-02 4.6895979102591179e-01 0.0000000000000000e+00  6.3824457290498252e-02 4.4147982661429558e-01 0.0000000000000000e+00  2.1717800663210514e-03 -5.4113370669167160e-01 0.0000000000000000e+00  6.7057888964999349e-03 -2.8829357942293116e-01 0.0000000000000000e+00  8.2343360491047169e-03 1.3946433878298511e-01 0.0000000000000000e+00  3.7399045557448046e-01 6.4910885975362931e-01 0.0000000000000000e+00  4.2910166195536115e-01 -2.5806791892891273e-01 0.0000000000000000e+00  -1.4408442629126766e-01 -1.2260856857197311e-01 0.0000000000000000e+00  -4.6697003857927674e-02 4.2091371802014788e-01 0.0000000000000000e+00  -1.5191496443030311e-01 6.1593443262538106e-01 0.0000000000000000e+00  -4.6792723039755922e-02 -5.2143837586649389e-01 0.0000000000000000e+00  3.3100691885215423e-02 2.7061423187712935e-01 0.0000000000000000e+00  -4.9853622594453979e-02 -3.1107215603547061e-01 0.0000000000000000e+00  3.0735233130478459e-02 -3.4793326857035300e-01 0.0000000000000000e+00  -4.5827256136809480e-01 1.8733103820279953e-02 0.0000000000000000e+00  2.7864583842052482e-02 1.7290424326117407e-01 0.0000000000000000e+00  2.2460036883222977e-02 3.0215586369774861e-01 0.0000000000000000e+00  -1.7900688186293593e-02 -4.8833529083859512e-01 0.0000000000000000e+00  -2.4798081327477334e-03 -4.5051233956648795e-01 0.0000000000000000e+00  6.8097493030875944e-03 -2.5774681283693207e-01 0.0000000000000000e+00  9.7566843764932357e-03 3.1805711330265757e-01 0.0000000000000000e+00  6.1846270801603539e-03 -3.0088784479778163e-01 0.0000000000000000e+00  1.2413254631013884e-02 -1.2407229801998503e-01 0.0000000000000000e+00  -5.0630673780032241e-02 7.2775775077202576e-01 0.0000000000000000e+00  -1.5823943981940040e-02 -4.7914921520433651e-01 0.0000000000000000e+00  3.3839541064051900e-03 6.1736733168421654e-01 0.0000000000000000e+00  -2.6207552722152028e-01 2.4940502965349873e-01 0.0000000000000000e+00  8.4184513985084523e-03 2.2339264533458067e-01 0.0000000000000000e+00  1.3838026156303729e-01 5.8084014570741904e-01 0.0000000000000000e+00  -9.3944255728922229e-03 4.3345809191242157e-01 0.0000000000000000e+00  4.1567255064253635e-03 -4.1986740212373430e-01 0.0000000000000000e+00  3.1985774237309153e-02 -3.2134029788083091e-01 0.0000000000000000e+00  -3.5085538649851172e-02 -5.1162880194951754e-01 0.0000000000000000e+00  -2.0177906306297844e-02 -5.9524231922223736e-01 0.0000000000000000e+00  -5.6766461343886821e-03 -2.8465120726508963e-01 0.0000000000000000e+00  2.8089184168993336e-02 -4.5153353200486435e-01 0.0000000000000000e+00  5.5552487869495834e-02 -8.7787979113812309e-02 0.0000000000000000e+00  1.7655557734488406e-02 -4.0917580936689757e-01 0.0000000000000000e+00  -4.8314686539220393e-02 5.4543389456247515e-01 0.0000000000000000e+00  -8.5393851061088526e-03 5.0224454550164843e-01 0.0000000000000000e+00  1.1963909018003467e-02 -4.1131949722475725e-01 0.0000000000000000e+00  3.8527645576201292e-03 -2.3510336676778018e-01 0.0000000000000000e+00  7.7312543174750895e-03 -4.3439366323185918e-01 0.0000000000000000e+00  -2.0413039075723963e-02 4.8989734725191980e-01 0.0000000000000000e+00  1.2110410098280469e-01 -1.8969857822596147e-02 0.0000000000000000e+00  -1.2924588279275544e-02 -1.9178050771581107e-01 0.0000000000000000e+00  7.4332581192453950e-02 -2.2278944292730268e-01 0.0000000000000000e+00  -8.0660184790456016e-02 5.0272500416551991e-01 0.0000000000000000e+00  -1.0794089032010958e-02 -4.8475469809468436e-01 0.0000000000000000e+00  -2.9511517360447653e-01 6.9837029987230714e-01 0.0000000000000000e+00  3.1845682386248408e-02 5.0555764233274603e-01 0.0000000000000000e+00  1.6249228990298525e-04 -1.9345431978664776e-04 0.0000000000000000e+00  2.5954369208766911e-02 -4.1878553003675023e-01 0.0000000000000000e+00  -1.5827601089609018e-03 -6.1873856886941458e-01 0.0000000000000000e+00  1.6271887866083476e-01 -4.0206374429256908e-01 0.0000000000000000e+00  5.9476396822329448e-02 -7.8965811298971303e-02 0.0000000000000000e+00  -5.2449139156309030e-04 -3.8751767140864649e-04 0.0000000000000000e+00  -6.8611850277840628e-02 -4.1479243938419547e-01 0.0000000000000000e+00  1.7486820061496148e-03 8.3468337728590924e-05 0.0000000000000000e+00  9.3915891055369780e-02 9.1012750560303349e-02 0.0000000000000000e+00  1.3033307219310899e-03 -2.4466366676634425e-05 0.0000000000000000e+00  -4.7200175117417738e-04 -4.2546207095455054e-04 0.0000000000000000e+00  -3.4184506685295206e-02 -6.5186013058406808e-02 0.0000000000000000e+00  6.1919728879267335e-03 6.3620522054910252e-03 0.0000000000000000e+00  -2.8560656410523171e-02 4.8915835319191608e-01 0.0000000000000000e+00  -2.4842492966555114e-02 -3.9690187943132693e-01 0.0000000000000000e+00  1.2638074563293697e-03 -2.5170243406319143e-01 0.0000000000000000e+00  -2.5540322179839037e-02 5.8730961731662690e-01 0.0000000000000000e+00  1.8482556677639150e-02 5.8900111020933188e-01 0.0000000000000000e+00  4.9158940944122155e-03 1.2692653028406495e-01 0.0000000000000000e+00  5.4777865307347358e-03 6.2463367013913829e-01 0.0000000000000000e+00  4.3222621250670543e-03 -4.1330386835623067e-02 0.0000000000000000e+00  5.5292374798053545e-03 -5.0813226670369982e-01 0.0000000000000000e+00  6.8405951575650575e-02 5.3894146773393181e-01 0.0000000000000000e+00  3.0222747227763708e-01 -1.8162980173847945e-01 0.0000000000000000e+00  8.8605246641913396e-02 -1.2013207711042115e-01 0.0000000000000000e+00  2.6454577308138265e-03 -3.5098258740369737e-01 0.0000000000000000e+00  -9.2335178717596112e-04 6.0569570418150553e-01 0.0000000000000000e+00  3.7587281056691781e-03 4.0371706146135850e-01 0.0000000000000000e+00  -1.3166879272793648e-03 -3.8105320907777546e-01 0.0000000000000000e+00  6.0953134728056531e-02 5.0555161933392767e-01 0.00