<?xml version="1.0"?>
<VTKFile type="UnstructuredGrid"  version="0.1"  >
<UnstructuredGrid>
<Piece  NumberOfPoints="4835" NumberOfCells="9296">
<Points>
<DataArray  type="Float64"  NumberOfComponents="3"  format="ascii">0 1.5 0  -0 0.1307014797437256 0  0.01134725726173103 0.1483581566929452 0  0.04283342385313163 0.181379897845022 0  0.08000000000000007 0.2078460969082653 0  0.1215036888038188 0.2268001964915204 0  0.1658444388144116 0.2375571460514239 0  0.2114196597976982 0.2397281614039219 0  0.2565821445222626 0.23323477639765 0  0.2996996031204527 0.2183116788850844 0  0.3392136582970876 0.1954982284920806 0  0.3736961691452169 0.1656189627557069 0  0.4019008478794835 0.1297537961893434 0  0.4059948616314525 0.1218125174167552 0  0.4254856317806581 0.1498156710261111 0  0.4592156240140376 0.1818784194956707 0  0.498709345141744 0.2064950441012706 0  0.5423499175804942 0.222657737339227 0  0.588350691167096 0.2297047966493422 0  0.6348283888260526 0.2273477145954656 0  0.6798802081543086 0.2156829903938285 0  0.7216617223752013 0.1951881792237927 0  0.7584623913874079 0.1667023410626976 0  0.7879811633353602 0.1323170874919288 0  0.8152477706948351 0.1684239109116393 0  0.849341340905186 0.1995043068200599 0  0.8885654110558655 0.2237908228387656 0  0.9315842524819793 0.2404564107932048 0  0.9769329101341745 0.2489335440737586 0  1.023067089865825 0.2489335440737586 0  1.068415747518021 0.2404564107932048 0  1.111434588944135 0.2237908228387656 0  1.150658659094814 0.1995043068200599 0  1.184752229305165 0.1684239109116393 0  1.212554283932403 0.1316080407193389 0  1.233118057351089 0.09031041654678823 0  1.245743274920975 0.04593737945414259 0  1.25 0 0  1.36108673858246 0 0  1.36108673858246 0.02281345039300389 0  1.369721686332521 0.06761581364194322 0  1.386679492322819 0.1099743652145785 0  1.411347257261731 0.1483581566929452 0  1.442833423853132 0.181379897845022 0  1.48 0.2078460969082653 0  1.521503688803819 0.2268001964915204 0  1.565844438814412 0.2375571460514239 0  1.611419659797698 0.2397281614039219 0  1.656582144522263 0.23323477639765 0  1.699699603120453 0.2183116788850844 0  1.739213658297088 0.1954982284920806 0  1.765497292517293 0.1727233297951148 0  1.79 0.1905255888325765 0  1.832016261237511 0.2092324335849338 0  1.877003738081116 0.2187948169810202 0  1.922996261918884 0.2187948169810201 0  1.967983738762488 0.2092324335849338 0  2.01 0.1905255888325765 0  2.047208733398949 0.1634918616050267 0  2.077983738762488 0.1293127555043441 0  2.087980221556173 0.1119983394086949 0  2.111347257261731 0.1483581566929452 0  2.142833423853131 0.181379897845022 0  2.18 0.2078460969082653 0  2.221503688803819 0.2268001964915204 0  2.265844438814411 0.2375571460514239 0  2.311419659797698 0.2397281614039219 0  2.356582144522263 0.23323477639765 0  2.399699603120453 0.2183116788850844 0  2.439213658297088 0.1954982284920806 0  2.457172785224357 0.179936556425434 0  2.459215624014038 0.1818784194956707 0  2.498709345141744 0.2064950441012706 0  2.542349917580494 0.222657737339227 0  2.588350691167096 0.2297047966493422 0  2.634828388826053 0.2273477145954656 0  2.679880208154309 0.2156829903938285 0  2.721661722375202 0.1951881792237927 0  2.758462391387408 0.1667023410626976 0  2.788775591477674 0.1313916894718022 0  2.811360296672653 0.09070184667606328 0  2.825291886488074 0.04629865962039181 0  2.83 0 0  3 0 0  3 1.5 0  0 0.8023345134541607 0  0.4157402467060553 0.1358140942214332 0  3 0.75 0  1.5 1.5 0  0 0.4665179965989431 0  3 0.375 0  0 0.2986097381713344 0  0 0.21465560895753 0  0 0.1726785443506278 0  0 0.1516900120471767 0  2.25 1.5 0  0.75 1.5 0  1.169989811679434 0.9093651732355621 0  1.875 0.9142758100523694 0  0.5779365036100435 0.9330077223331824 0  2.43246936225428 0.7976868957014953 0  3 1.125 0  2.625 1.5 0  0.375 1.5 0  0 1.15116725672708 0  1.449253057879235 0.6213873587688492 0  0.7697361971202799 0.5943793911944208 0  0.3630076616442724 0.6080350564914153 0  2.069570984533324 0.5812833454367354 0  1.875 1.5 0  1.125 1.5 0  2.4375 1.173854331507092 0  0.8831005780031504 1.150004411874495 0  1.52207987625039 0.9714054497350916 0  2.0625 1.207137905026185 0  1.107793318688589 0.5766433232347881 0  1.3125 1.2274095306559 0  2.729985961523573 0.9375 0  2.711750443384031 0.5625 0  1.6875 1.243073622519403 0  1.760894209596057 0.6242614373612321 0  0.2643049832376852 0.9767508850906206 0  0.4566194854768236 1.209399638766609 0  2.728217267602858 1.228217267602858 0  2.374499195658668 0.518153287180279 0  2.169650674143702 0.9320836008992801 0  0.8550719231757007 0.8663457099410541 0  1.303567858855371 0.4078893824383345 0  0.2133194436665546 1.297827371069245 0  0.5308017499037517 0.4517023193912283 0  1.083077097725883 1.270382833575872 0  0.6830238102386342 1.274223132985906 0  2.250983943328481 0.6895458766515071 0  1.81089184968521 0.4192208869708923 0  1.679274712803154 0.8238291020339636 0  1.5785148524717 0.4510287526682343 0  0 0.6344262550265519 0  0.2138866804674432 0.765685327335986 0  0.5683532856219899 0.6602211278972628 0  0.9375 1.5 0  0.93201471049342 0.4568525359126817 0  1.262687644113192 0.7198627504483751 0  0.4154000952342595 0.8069446327163143 0  0.2139559556345817 0.4540330649264536 0  2.06977986811652 0.3813318272583126 0  0.7200651071201811 0.4061566188086219 0  1.932157822851692 0.7243325602448901 0  0.9441947922338874 0.689010158618046 0  3 1.3125 0  2.8125 1.5 0  0.5625 1.5 0  1.865575888969794 1.126762336039809 0  1.691368628814911 1.054521333692312 0  2.243682835689564 1.11932177110543 0  2.294933652681559 1.30886281903233 0  2.4375 1.5 0  2.385653526545621 0.9864303388879195 0  2.560603055863368 1.320052196970997 0  2.605098352881707 1.08210421072607 0  2.797310903081369 0.7462827406561878 0  1.497248537655819 1.30111187331848 0  1.6875 1.5 0  3 0.5625 0  3 0.9375 0  1.3125 1.5 0  2.0625 1.5 0  3 0.1875 0  0.1875 1.5 0  0.9978323986844071 0.9954535003819682 0  0.7455388243606953 1.020382929522352 0  1.904625246064701 1.312514164033404 0  1.15622562020362 1.097022204090454 0  1.332774827327096 1.015638362851981 0  2.617489052932561 0.7904306825848915 0  2.798834931624827 0.3810601956207291 0  2.518702939674024 0.6340258449062608 0  1.42862153170688 0.8082655083169574 0  2.016051725629557 1.02698392558818 0  2.557580898838836 0.4303899543284488 0  0.9143579924460792 1.324371521638632 0  0.6907201107072946 0.792483910827579 0  0 1.32558362836354 0  0 0.9767508850906206 0  0.6046140448732628 1.120294499938289 0  1.129353874055204 0.4037183319394277 0  2.240578803971554 0.4086758810341738 0  1.544887400155686 1.138911442832316 0  2.828734594747712 1.083464790593587 0  0.401358428169992 0.3487630281226344 0  0.1737226743516005 1.126953194380642 0  1.219293394173851 1.36370476532795 0  2.095593203128485 0.7438044944874065 0  1.099947866649755 0.7404984974094087 0  0.4225987016856009 0.9654760294046846 0  1.265404984472296 0.5615537191035901 0  1.908099381276504 0.55154028811489 0  1.605233217264331 0.6055204891939014 0  0.2070403235706232 0.6098576665994301 0  0.46875 1.369568887475175 0  2.529999076220762 0.9220559311443081 0  0.3296306516835505 1.118561581461605 0  2.136891098712708 1.353568952513092 0  0.1250262355603041 0.8895426992723907 0  2.286468869522623 0.8363516131379349 0  2.03024950667879 0.8782110935537075 0  2.71875 1.380113023166798 0  2.851157149000174 1.312122703709591 0  2.855875221692015 0.6072101925796368 0  1.766081959310164 1.371536811259701 0  2.417227117459742 0.3724437385102629 0  1.365276810157265 1.363519047380362 0  1.451310499971155 0.3640091006357036 0  2.211012611580202 0.5503989260541815 0  1.306789156675977 0.2570819477057019 0  2.872418607762505 0.256220469598872 0  2.896902016958361 0.84375 0  0.6487095286926469 0.5256523827174592 0  1.021477811485347 1.13286821063065 0  1.622350554793597 1.371881362989231 0  1.297557547403682 0.854343314165958 0  0.5529398034156436 0.7974238691464364 0  1.000783388185185 0.848708117631217 0  0.8152141294141361 0.735251676415229 0  2.383386472338196 0.654760318649699 0  1.031024064601143 1.39833771698851 0  1.812756223744312 0.7919737740986065 0  2.902150447032281 0.46875 0  1.558478314279628 0.7430881247578319 0  2.428095049619715 1.306700780290589 0  0.3309906154406318 1.369459454266083 0  0.117457385934373 0.361895434578648 0  0.4016309285334721 0.4812757168525422 0  1.933925005895449 0.3564723397117748 0  0.7479761182598068 1.155601287121883 0  0.09711831342126455 1.23837544254531 0  1.384025258268523 0.5094422387329146 0  2.188092881729461 1.235445092789212 0  0.116614462422195 1.388212202394539 0  0.5993432477835932 1.374610260003488 0  0.8731519049868882 1.022757560732678 0  0.1109021857268646 0.5275252102504697 0  1.703820060431276 0.5017282682884084 0  0.1118224159219883 0.6921053365242938 0  0.3267069786561488 1.244030051070764 0  2.878127312164905 0.9679608000003684 0  1.408346090782441 1.129729637108486 0  0.8047358880839842 0.3153623688883521 0  2.6405066654848 0.6664933064830099 0  0.4805702216488833 1.081724858267193 0  2.668084598222495 0.3562155878484895 0  2.138121375887776 1.052804865904559 0  1.96875 1.5 0  0.4891907154726056 0.5668366043293971 0  0.1473863332166031 1.0086557402922 0  2.558860649578938 1.196592162044302 0  1.717555244640741 0.3396535732296396 0  0.84375 1.5 0  0.7839942032523698 1.367093097528149 0  3 1.40625 0  2.484124862262918 1.060073596740424 0  3 1.21875 0  2.34375 1.5 0  0.8196209764267471 1.251369088398821 0  2.023202270335131 1.319214170177879 0  0.5721208504581607 1.233781127425821 0  1.984735816620384 0.462442873488178 0  0.6955333931194808 0.9118686683832042 0  1.19123464962554 1.213906677421382 0  0.8929803638185398 0.5752987850534633 0  1.566736823664244 0.8614646887466211 0  1.808684073906441 1.017786844668201 0  1.719105195888173 0.9374041347540488 0  1.671476674178274 0.70476362875428 0  1.218260709491531 0.330629071498573 0  2.839021519587611 1.19788439058923 0  0.5170070740021471 0.3361933937254621 0  1.393527188254162 0.91788143976
[...]
<PointData  Vectors="f_60"> 
<DataArray  type="Float64"  Name="f_60"  NumberOfComponents="3" format="ascii">-4.6581013635765165e-05 -3.4826890509510351e-04 0.0000000000000000e+00  -1.1415736987173002e-04 1.0891104821229795e-05 0.0000000000000000e+00  7.5747399595149062e-05 3.0166296537314004e-05 0.0000000000000000e+00  3.4455781347034729e-04 2.3065069475563426e-04 0.0000000000000000e+00  1.5522004550618841e-04 5.7200700200665485e-04 0.0000000000000000e+00  -4.6662650214776921e-04 6.7134841551105969e-04 0.0000000000000000e+00  -2.8769324267827456e-05 8.6757554018505911e-04 0.0000000000000000e+00  6.8533628610886949e-04 8.2730689397157893e-04 0.0000000000000000e+00  -6.0016063003888800e-04 5.5388003435414125e-04 0.0000000000000000e+00  7.0360269292777213e-04 3.9293218258571063e-04 0.0000000000000000e+00  6.2400495464376909e-05 8.2122634962620558e-04 0.0000000000000000e+00  -4.5318357472405271e-04 1.0586311247559627e-03 0.0000000000000000e+00  1.2306837190140390e-04 1.1979812324309038e-04 0.0000000000000000e+00  1.3187120655177065e-04 1.3425246814531346e-04 0.0000000000000000e+00  1.0219342004387959e-04 3.8895007519991378e-04 0.0000000000000000e+00  -1.5049437906083075e-04 3.9068326841006204e-04 0.0000000000000000e+00  4.0244807712001363e-04 9.5506333863969585e-04 0.0000000000000000e+00  4.5287095075584002e-04 8.7891983911349519e-04 0.0000000000000000e+00  -3.7008646130506651e-04 4.6871369382904402e-04 0.0000000000000000e+00  6.3991624029307887e-04 3.2677537905759473e-04 0.0000000000000000e+00  -4.5003310191276405e-04 8.8649308757569184e-04 0.0000000000000000e+00  -1.1029961533513439e-04 7.3866807219998974e-04 0.0000000000000000e+00  -1.1144835883979758e-04 4.7763148913474622e-04 0.0000000000000000e+00  -1.8981927576865908e-04 1.0491430438587182e-04 0.0000000000000000e+00  3.2130057331581041e-04 7.4156042726517273e-04 0.0000000000000000e+00  6.1415899734759509e-04 1.0018802617939037e-03 0.0000000000000000e+00  -6.2744656019004012e-04 3.2880207563147542e-04 0.0000000000000000e+00  -2.4028576805251056e-04 2.6024034888521820e-04 0.0000000000000000e+00  -2.2312743302564387e-04 8.9722242896177944e-04 0.0000000000000000e+00  -2.2708731752801731e-04 7.7590599681653992e-04 0.0000000000000000e+00  5.2267424030531914e-04 6.8206509801935797e-04 0.0000000000000000e+00  -5.3732393853166019e-04 8.4847153916495189e-04 0.0000000000000000e+00  3.6694586040191620e-04 1.0984167209566685e-04 0.0000000000000000e+00  5.2320855824289055e-04 -2.8055517693013649e-04 0.0000000000000000e+00  -1.3663694952473945e-04 3.1739131548688866e-04 0.0000000000000000e+00  -5.8920232542696135e-04 8.5422370003650206e-04 0.0000000000000000e+00  9.7644368159961924e-05 9.6448504364371771e-04 0.0000000000000000e+00  3.6325313717928433e-04 6.8377204300339113e-04 0.0000000000000000e+00  1.9246950190907541e-04 2.5658571469726549e-04 0.0000000000000000e+00  1.7968677185005937e-04 3.9533444512373378e-04 0.0000000000000000e+00  9.5125502449438672e-05 5.8990109685734017e-04 0.0000000000000000e+00  -1.9925454505976699e-04 3.0663794832278500e-04 0.0000000000000000e+00  -4.7160517338161211e-06 6.6000768765862015e-04 0.0000000000000000e+00  4.0444882910772834e-04 9.4929030636047192e-04 0.0000000000000000e+00  -3.9575006302456945e-04 4.3192248061938761e-04 0.0000000000000000e+00  -1.9097090465135797e-04 3.9158813600195027e-04 0.0000000000000000e+00  2.8447245832734924e-04 5.5264735152589853e-04 0.0000000000000000e+00  -7.5464725813481767e-04 9.1724114449318603e-04 0.0000000000000000e+00  7.1235660748490486e-04 7.2622547389825478e-04 0.0000000000000000e+00  2.9056133674954372e-04 6.7276664155836480e-04 0.0000000000000000e+00  -6.5722894953606354e-04 3.5292959595198647e-04 0.0000000000000000e+00  -3.6685734000748430e-04 3.2662917229086787e-04 0.0000000000000000e+00  -1.2645518828442929e-04 3.1592985538812676e-04 0.0000000000000000e+00  3.3183347802214137e-04 6.5501045951898713e-04 0.0000000000000000e+00  2.0208316201844468e-04 7.1027756461328640e-04 0.0000000000000000e+00  -3.9126501270685711e-05 8.4900115969814376e-04 0.0000000000000000e+00  6.1019031937823679e-04 5.6899361894301973e-04 0.0000000000000000e+00  -2.4096863540070990e-04 3.4267713889904954e-04 0.0000000000000000e+00  -4.7607988202045111e-04 3.0481025991894745e-04 0.0000000000000000e+00  -2.1231266551977238e-04 1.0689479808918386e-04 0.0000000000000000e+00  -8.3399228735214172e-06 4.5554471403684315e-05 0.0000000000000000e+00  -1.3757953594028779e-04 7.1658127126886299e-05 0.0000000000000000e+00  6.5728458200383733e-04 5.8955120573768905e-04 0.0000000000000000e+00  5.8776613767520954e-04 8.2968991122642287e-04 0.0000000000000000e+00  -4.8462852900641866e-04 5.5386100844837774e-04 0.0000000000000000e+00  3.8536179254945090e-04 8.0177517516261284e-04 0.0000000000000000e+00  2.5255561428666939e-04 7.4084913627316010e-04 0.0000000000000000e+00  -6.6042462995120489e-06 2.9277958383392355e-04 0.0000000000000000e+00  3.5626808116214533e-04 4.5109867933200236e-04 0.0000000000000000e+00  5.6075538438926664e-04 1.3594503171743459e-03 0.0000000000000000e+00  -1.2149052060422079e-03 5.8975254962311886e-04 0.0000000000000000e+00  1.0686940581844725e-03 4.8723028642902894e-04 0.0000000000000000e+00  4.0500340802942939e-04 9.6681868061924221e-04 0.0000000000000000e+00  7.8341917963236957e-04 6.5947795793141139e-04 0.0000000000000000e+00  6.5476991555849786e-04 4.1144332994830500e-04 0.0000000000000000e+00  5.8806251706567747e-04 -4.4572661671136884e-04 0.0000000000000000e+00  1.6513844646365689e-03 -7.9948690179379716e-04 0.0000000000000000e+00  -6.6390009249239074e-04 -2.1258206916145345e-04 0.0000000000000000e+00  -5.3209319759286436e-04 -8.2736432276512019e-05 0.0000000000000000e+00  5.8847358322527109e-04 -2.7470812818939771e-04 0.0000000000000000e+00  1.1719522431390390e-04 1.0428459425258172e-04 0.0000000000000000e+00  3.7073750305470424e-06 1.6198795071388421e-04 0.0000000000000000e+00  -8.1216900449286318e-05 5.0462724362334755e-05 0.0000000000000000e+00  -1.5652855766055452e-03 1.1751999418333832e-03 0.0000000000000000e+00  -1.0364226204688817e-03 -2.8677005301442628e-05 0.0000000000000000e+00  -3.3268883638875233e-06 1.4490962732436443e-06 0.0000000000000000e+00  1.5446237757187113e-04 2.3684742354815292e-04 0.0000000000000000e+00  1.0820093231052389e-04 -2.7623162102644315e-04 0.0000000000000000e+00  2.6865753184623161e-04 -5.9182819586732873e-04 0.0000000000000000e+00  -3.1253490574766258e-06 6.8413621595490694e-05 0.0000000000000000e+00  -4.2072142553282931e-03 3.8033987729779446e-04 0.0000000000000000e+00  2.9727115553457192e-04 9.0161199040746575e-04 0.0000000000000000e+00  2.3812086742806322e-04 6.1869966595201826e-04 0.0000000000000000e+00  2.1338897261587180e-04 1.8832328793602225e-04 0.0000000000000000e+00  1.3721708911043481e-05 8.6416986866880418e-05 0.0000000000000000e+00  -2.2435847181146766e-04 -3.9545651150902771e-04 0.0000000000000000e+00  2.3658215940451551e-05 -2.3599690452040485e-04 0.0000000000000000e+00  1.2864721079592076e-03 1.2363460183351829e+00 0.0000000000000000e+00  1.5219839606060629e-02 1.4161928229649773e-01 0.0000000000000000e+00  -5.0521437687489762e-03 1.3338846197751681e+00 0.0000000000000000e+00  -2.1893918832643668e-03 1.6684079726909966e+00 0.0000000000000000e+00  1.6933211983576947e-03 -1.7795825845669984e-04 0.0000000000000000e+00  -2.1567641480849299e-04 -6.9368973587889530e-04 0.0000000000000000e+00  -2.1412799863763610e-05 -5.0952153326601162e-04 0.0000000000000000e+00  -1.2076701520723589e-05 -3.3522006845768513e-06 0.0000000000000000e+00  4.7933472304939592e-02 7.2747330993955173e-01 0.0000000000000000e+00  5.0741421902500534e-02 -1.4020351485827480e+00 0.0000000000000000e+00  5.7356675087125004e-02 3.8669227758654356e-01 0.0000000000000000e+00  -5.3996461342750532e-02 1.4031953016573553e+00 0.0000000000000000e+00  2.2587334437079771e-05 -6.9988101742209801e-04 0.0000000000000000e+00  -3.0503215705713439e-04 -9.2605981711236423e-04 0.0000000000000000e+00  2.9277919109243294e-01 1.5555307276070685e+00 0.0000000000000000e+00  -6.0806495076080831e-02 1.4265975931440056e+00 0.0000000000000000e+00  -3.6545040150677641e-03 1.4015621454526557e+00 0.0000000000000000e+00  7.1057491702265482e-02 1.1685719584906962e+00 0.0000000000000000e+00  6.4385655918571524e-02 -5.4491700586859160e-01 0.0000000000000000e+00  -5.4066394824663438e-02 -1.0718508787640890e+00 0.0000000000000000e+00  2.4563753564099083e-01 2.2202551161535777e+00 0.0000000000000000e+00  -3.6500500449162743e-01 2.2185251164125606e+00 0.0000000000000000e+00  -3.0407275158087027e-02 -1.0074695426151703e+00 0.0000000000000000e+00  6.2029948984782396e-03 1.1023057969180077e+00 0.0000000000000000e+00  -7.1928937088205566e-03 1.0645899168066104e+00 0.0000000000000000e+00  -5.3767539449375311e-02 -1.5010116459700917e+00 0.0000000000000000e+00  7.1804854874811819e-01 2.1337516002074866e+00 0.0000000000000000e+00  -2.0737038175650388e-01 1.6777328448285129e+00 0.0000000000000000e+00  4.6788576650005360e-02 4.6548508505950414e-01 0.0000000000000000e+00  7.0805116436291598e-03 8.8272750355783658e-01 0.0000000000000000e+00  1.2762724200326761e-01 -7.7739189468666003e-01 0.0000000000000000e+00  -8.5325052988507830e-02 -3.3789421590489610e-01 0.0000000000000000e+00  1.0011354439493603e-01 8.8202373633675571e-02 0.0000000000000000e+00  -8.7948345440527181e-02 -1.1130778855728514e+00 0.0000000000000000e+00  -7.0267016533238344e-02 -3.0214870746237421e-01 0.0000000000000000e+00  -7.8980462860516298e-02 -1.1868970920832003e+00 0.0000000000000000e+00  -1.7705186378551958e-02 1.4971374589763291e+00 0.0000000000000000e+00  1.5590763205582623e-02 -1.1646574274974688e+00 0.0000000000000000e+00  8.9489366236411277e-03 -8.3431492768094001e-02 0.0000000000000000e+00  6.4862799237569427e-06 1.3468290120256736e-05 0.0000000000000000e+00  2.3131955171176614e-02 -4.0606499721515549e-01 0.0000000000000000e+00  4.6365041689884937e-02 1.1457507860634346e+00 0.0000000000000000e+00  7.1875320263968014e-04 -7.6284168289356602e-04 0.0000000000000000e+00  4.0911329027153484e-02 1.2115711939560752e+00 0.0000000000000000e+00  4.0368320882699538e-02 4.3847761396106227e-01 0.0000000000000000e+00  2.9027334525417333e-02 -1.1472871751241251e+00 0.0000000000000000e+00  9.6005102890112118e-02 -3.8694885433927773e-01 0.0000000000000000e+00  -8.8997882541621623e-02 1.3211391977633313e+00 0.0000000000000000e+00  3.7467431629254040e-02 -1.2068186044051057e+00 0.0000000000000000e+00  -1.0420845906577105e-02 -1.2591730861212493e+00 0.0000000000000000e+00  3.7713453440871895e-02 9.3509278119343042e-01 0.0000000000000000e+00  2.2112414972803502e-03 3.3885735937650655e-04 0.0000000000000000e+00  1.8006657569910496e-03 -8.4688035052462815e-04 0.0000000000000000e+00  -6.6215816777482359e-04 -8.4890873717678240e-04 0.0000000000000000e+00  1.6545698205724626e-02 4.0774795365143224e-01 0.0000000000000000e+00  2.2232209665216203e-03 -9.1049605563467406e-01 0.0000000000000000e+00  1.2836521275576465e-01 -1.2439258640276505e+00 0.0000000000000000e+00  1.8215591833633238e-01 -8.2430371537290126e-01 0.0000000000000000e+00  5.9906538869175594e-04 -8.7654136194758149e-04 0.0000000000000000e+00  1.5189638644771469e-01 1.8449628807901641e+00 0.0000000000000000e+00  4.9346060780087908e-01 -1.2130378892635214e+00 0.0000000000000000e+00  3.3488928056333594e-01 -1.8284092750410202e-01 0.0000000000000000e+00  -1.3028287852334278e-01 3.3639592226626208e-01 0.0000000000000000e+00  -7.3911356731108518e-02 1.4978104708021704e+00 0.0000000000000000e+00  8.2279800531593489e-04 -3.1180413233784050e-04 0.0000000000000000e+00  -1.0273395035139783e-03 -1.9775026716134495e-04 0.0000000000000000e+00  1.0807759786407136e-03 -9.6161357287302584e-05 0.0000000000000000e+00  -5.6324770614391820e-04 -5.0397570303145481e-04 0.0000000000000000e+00  -8.5751683050506111e-04 -6.0865710558004793e-04 0.0000000000000000e+00  -5.4913104366951264e-03 -7.1249294817037718e-04 0.0000000000000000e+00  5.9536158779637872e-04 -4.9958118040323047e-04 0.0000000000000000e+00  -1.2372955165857024e-02 -6.9252096551773901e-01 0.0000000000000000e+00  -1.5160405091912658e-02 -1.5092169483327464e+00 0.0000000000000000e+00  3.6846650839728733e-02 -7.9315399675856602e-01 0.0000000000000000e+00  -4.0467486930489523e-02 9.4869216984290650e-01 0.0000000000000000e+00  -7.8663857817038788e-03 -1.3868452294850449e+00 0.0000000000000000e+00  -2.1280099924244848e-02 5.3219648503343275e-01 0.0000000000000000e+00  -9.5144505112988775e-01 -1.3918554629020305e-01 0.0000000000000000e+00  -2.3684566519178954e-01 -6.8230083044416989e-01 0.0000000000000000e+00  2.4679129904494196e-02 1.3370103845330292e-01 0.0000000000000000e+00  4.6924636238215897e-02 -1.4539396663625417e-01 0.0000000000000000e+00  -5.2578562324583444e-01 -8.8856144480695887e-01 0.0000000000000000e+00  -8.5747101840920506e-02 1.3790753194793119e+00 0.0000000000000000e+00  2.6535806458623849e-02 -4.8057399858595157e-01 0.0000000000000000e+00  5.2789156062860015e-05 -2.2364485572493856e-04 0.0000000000000000e+00  5.0276835722636147e-06 1.2990544778092989e-05 0.0000000000000000e+00  -4.9204625000172357e-02 1.4880680533256692e+00 0.0000000000000000e+00  1.4307056025201437e-01 1.3280716248975072e-01 0.0000000000000000e+00  -1.9524752625386732e-01 -1.2594773244171473e+00 0.0000000000000000e+00  -2.9088176585660000e-02 9.2164919223768560e-01 0.0000000000000000e+00  4.6988452503077438e-01 -1.5658950397318797e-01 0.0000000000000000e+00  5.2486504199651979e-02 -7.2533967068940042e-01 0.0000000000000000e+00  -1.7465077232120867e-02 -1.3662573575442041e+00 0.0000000000000000e+00  -6.5720381122958901e-02 1.2658089476176910e+00 0.0000000000000000e+00  -7.5713645184791057e-03 1.7222532130970900e+00 0.0000000000000000e+00  3.8090821492251105e-02 -7.6072775901368639e-01 0.0000000000000000e+00  3.4139402837276737e-04 -1.2952325029893796e+00 0.0000000000000000e+00  7.4152060518834703e-02 3.7549778016651664e-01 0.0000000000000000e+00  -3.3981439220133587e-02 -8.6035853450669708e-01 0.0000000000000000e+00  2.4062764441221862e-02 -8.3233642281607956e-01 0.0000000000000000e+00  4.5276242006151129e-02 -6.0724184068325693e-01 0.0000000000000000e+00  -1.4170658658624277e-01 -1.2837600303939602e+00 0.0000000000000000e+00  9.1804076718754582e-02 -7.4749710086640031e-01 0.0000000000000000e+00  -3.5612176346565418e-02 1.1844013793634083e+00 0.0000000000000000e+00  1.5967721622025727e-01 1.1529793791844749e+00 0.0000000000000000e+00  8.1048557836459496e-03 -1.3697547423364176e+00 0.0000000000000000e+00  8.1313459787860833e-03 -7.4378548060789773e-01 0.0000000000000000e+00  2.3698208550260346e-02 3.4176801220424780e-01 0.0000000000000000e+00  8.9073669929030297e-01 1.7069242206644955e+00 0.0000000000000000e+00  1.0390692850654111e+00 -5.9196887978206880e-01 0.0000000000000000e+00  -4.1828229755269009e-01 -2.5742065199944841e-01 0.0000000000000000e+00  -1.3676771414273745e-01 1.0777108849137440e+00 0.0000000000000000e+00  -3.7087598185979354e-01 1.4621226630687612e+00 0.0000000000000000e+00  -1.2609470455450941e-01 -1.3277455288930295e+00 0.0000000000000000e+00  8.6260175101270306e-02 6.5243269627107614e-01 0.0000000000000000e+00  -1.3066571387301032e-01 -8.3313001548961552e-01 0.0000000000000000e+00  6.8559342017810082e-02 -8.1970740727468383e-01 0.0000000000000000e+00  -1.0984100977201272e+00 4.5987241289014902e-01 0.0000000000000000e+00  5.3359109472521843e-02 4.0986731843943375e-01 0.0000000000000000e+00  5.7943039676356549e-02 7.9373533146861985e-01 0.0000000000000000e+00  -4.2181432506481056e-02 -1.2547226896360038e+00 0.0000000000000000e+00  -6.0323122638381629e-03 -1.1702724745872732e+00 0.0000000000000000e+00  2.0146362476030463e-02 -6.4474743496156084e-01 0.0000000000000000e+00  2.3887550641632803e-02 7.9841368517285527e-01 0.0000000000000000e+00  1.7898222753864147e-02 -7.5813224638878851e-01 0.0000000000000000e+00  3.3096902423060993e-02 -3.2912980543527109e-01 0.0000000000000000e+00  -1.0574542301652244e-01 1.8498704965550199e+00 0.0000000000000000e+00  -5.0751939542043926e-02 -1.2353963032268753e+00 0.0000000000000000e+00  1.0203079260607293e-02 1.5671129076164363e+00 0.0000000000000000e+00  -6.6586782071867989e-01 9.8511242387096454e-01 0.0000000000000000e+00  2.2105346310364662e-02 5.7537139670278126e-01 0.0000000000000000e+00  3.4923033025592232e-01 1.5685158324414643e+00 0.0000000000000000e+00  -2.8878283060755971e-02 1.0602614561219124e+00 0.0000000000000000e+00  9.8609543301878596e-03 -1.0319917859927870e+00 0.0000000000000000e+00  8.9185450496648194e-02 -7.7030876962288730e-01 0.0000000000000000e+00  -8.7462857322610887e-02 -1.2885389130793068e+00 0.0000000000000000e+00  -4.7601544457932202e-02 -1.5124334567123146e+00 0.0000000000000000e+00  -1.2908403565189724e-02 -7.2323822610747346e-01 0.0000000000000000e+00  8.3969406748975628e-02 -1.1637881699748880e+00 0.0000000000000000e+00  1.3470804951979889e-01 -1.6368871502157475e-01 0.0000000000000000e+00  3.1113376823558820e-02 -1.0425814079972207e+00 0.0000000000000000e+00  -1.2295286617906652e-01 1.3570617595346623e+00 0.0000000000000000e+00  -2.7626917000163263e-02 1.2836652527463259e+00 0.0000000000000000e+00  3.8182770276162709e-02 -1.0274091267253262e+00 0.0000000000000000e+00  1.2394874622365449e-02 -6.0403094144231029e-01 0.0000000000000000e+00  2.3856528066487193e-02 -1.0915262104459709e+00 0.0000000000000000e+00  -6.1235331405358119e-02 1.2295912663284392e+00 0.0000000000000000e+00  2.7162952983258376e-01 -1.4137618183640940e-01 0.0000000000000000e+00  -3.1598983090323579e-02 -4.7115497905296810e-01 0.0000000000000000e+00  2.0585251700214685e-01 -5.9340054030019240e-01 0.0000000000000000e+00  -1.7830080538464410e-01 1.3712914207872164e+00 0.0000000000000000e+00  -2.5367442636311154e-02 -1.2181721388323090e+00 0.0000000000000000e+00  -7.2970938246330352e-01 1.9131493571672882e+00 0.0000000000000000e+00  8.0587365563849545e-02 1.3134578830432937e+00 0.0000000000000000e+00  5.8896913599367298e-04 -6.0478265139867870e-04 0.0000000000000000e+00  7.3044914110772213e-02 -1.0870875919622378e+00 0.0000000000000000e+00  -1.2237679939676078e-03 -1.5672639315991501e+00 0.0000000000000000e+00  3.9173778955316524e-01 -1.0763097281030087e+00 0.0000000000000000e+00  1.5731399462529450e-01 -2.2079280910701538e-01 0.0000000000000000e+00  -7.6733814238872462e-04 -6.0727381396462018e-04 0.0000000000000000e+00  -1.8276382679691805e-01 -1.0170618961819966e+00 0.0000000000000000e+00  6.2824656999578804e-04 4.1073010913114628e-04 0.0000000000000000e+00  2.2719360312115433e-01 3.4079061469810712e-01 0.0000000000000000e+00  1.7979242847188234e-03 -5.9066534121797436e-05 0.0000000000000000e+00  -5.1342434657157695e-04 -7.9636280888102185e-04 0.0000000000000000e+00  -9.0332505526258988e-02 -1.1991870161764617e-01 0.0000000000000000e+00  9.5749670768973359e-03 -7.5066773953618689e-03 0.0000000000000000e+00  -8.2284508957350802e-02 1.2629879479458841e+00 0.0000000000000000e+00  -6.0454573727252166e-02 -9.8224823234458414e-01 0.0000000000000000e+00  4.6160913838109476e-03 -6.3759931401725067e-01 0.0000000000000000e+00  -7.2824160889808892e-02 1.4991691860081822e+00 0.0000000000000000e+00  4.8276644016302141e-02 1.4945477553088593e+00 0.0000000000000000e+00  1.1922017822063197e-02 3.2801679968527631e-01 0.0000000000000000e+00  1.2293354265154152e-02 1.5893172909669762e+00 0.0000000000000000e+00  1.2287708811267060e-02 -1.1132690255909730e-01 0.0000000000000000e+00  1.6956267553242432e-02 -1.2957245718304311e+00 0.0000000000000000e+00  1.8707712066380894e-01 1.4206641297636013e+00 0.0000000000000000e+00  7.1319278661300634e-01 -3.4731732590326481e-01 0.0000000000000000e+00  2.3555890039140753e-01 -3.5736297028798786e-01 0.0000000000000000e+00  1.0758917732655394e-02 -8.9388147797593176e-01 0.0000000000000000e+00  -8.0474293842367223e-03 1.5401789322710442e+00 0.0000000000000000e+00  6.8069144185708714e-03 1.0336230840482175e+00 0.0000000000000000e+00  -1.1841861997616070e-02 -9.4118212583136107e-01 0.0000000000000000e+00  1.7576122536073308e-01 1.2742173914702313e+00 0.0