<?xml version="1.0"?>
<VTKFile type="UnstructuredGrid"  version="0.1"  >
<UnstructuredGrid>
<Piece  NumberOfPoints="4835" NumberOfCells="9296">
<Points>
<DataArray  type="Float64"  NumberOfComponents="3"  format="ascii">0 1.5 0  -0 0.1307014797437256 0  0.01134725726173103 0.1483581566929452 0  0.04283342385313163 0.181379897845022 0  0.08000000000000007 0.2078460969082653 0  0.1215036888038188 0.2268001964915204 0  0.1658444388144116 0.2375571460514239 0  0.2114196597976982 0.2397281614039219 0  0.2565821445222626 0.23323477639765 0  0.2996996031204527 0.2183116788850844 0  0.3392136582970876 0.1954982284920806 0  0.3736961691452169 0.1656189627557069 0  0.4019008478794835 0.1297537961893434 0  0.4059948616314525 0.1218125174167552 0  0.4254856317806581 0.1498156710261111 0  0.4592156240140376 0.1818784194956707 0  0.498709345141744 0.2064950441012706 0  0.5423499175804942 0.222657737339227 0  0.588350691167096 0.2297047966493422 0  0.6348283888260526 0.2273477145954656 0  0.6798802081543086 0.2156829903938285 0  0.7216617223752013 0.1951881792237927 0  0.7584623913874079 0.1667023410626976 0  0.7879811633353602 0.1323170874919288 0  0.8152477706948351 0.1684239109116393 0  0.849341340905186 0.1995043068200599 0  0.8885654110558655 0.2237908228387656 0  0.9315842524819793 0.2404564107932048 0  0.9769329101341745 0.2489335440737586 0  1.023067089865825 0.2489335440737586 0  1.068415747518021 0.2404564107932048 0  1.111434588944135 0.2237908228387656 0  1.150658659094814 0.1995043068200599 0  1.184752229305165 0.1684239109116393 0  1.212554283932403 0.1316080407193389 0  1.233118057351089 0.09031041654678823 0  1.245743274920975 0.04593737945414259 0  1.25 0 0  1.36108673858246 0 0  1.36108673858246 0.02281345039300389 0  1.369721686332521 0.06761581364194322 0  1.386679492322819 0.1099743652145785 0  1.411347257261731 0.1483581566929452 0  1.442833423853132 0.181379897845022 0  1.48 0.2078460969082653 0  1.521503688803819 0.2268001964915204 0  1.565844438814412 0.2375571460514239 0  1.611419659797698 0.2397281614039219 0  1.656582144522263 0.23323477639765 0  1.699699603120453 0.2183116788850844 0  1.739213658297088 0.1954982284920806 0  1.765497292517293 0.1727233297951148 0  1.79 0.1905255888325765 0  1.832016261237511 0.2092324335849338 0  1.877003738081116 0.2187948169810202 0  1.922996261918884 0.2187948169810201 0  1.967983738762488 0.2092324335849338 0  2.01 0.1905255888325765 0  2.047208733398949 0.1634918616050267 0  2.077983738762488 0.1293127555043441 0  2.087980221556173 0.1119983394086949 0  2.111347257261731 0.1483581566929452 0  2.142833423853131 0.181379897845022 0  2.18 0.2078460969082653 0  2.221503688803819 0.2268001964915204 0  2.265844438814411 0.2375571460514239 0  2.311419659797698 0.2397281614039219 0  2.356582144522263 0.23323477639765 0  2.399699603120453 0.2183116788850844 0  2.439213658297088 0.1954982284920806 0  2.457172785224357 0.179936556425434 0  2.459215624014038 0.1818784194956707 0  2.498709345141744 0.2064950441012706 0  2.542349917580494 0.222657737339227 0  2.588350691167096 0.2297047966493422 0  2.634828388826053 0.2273477145954656 0  2.679880208154309 0.2156829903938285 0  2.721661722375202 0.1951881792237927 0  2.758462391387408 0.1667023410626976 0  2.788775591477674 0.1313916894718022 0  2.811360296672653 0.09070184667606328 0  2.825291886488074 0.04629865962039181 0  2.83 0 0  3 0 0  3 1.5 0  0 0.8023345134541607 0  0.4157402467060553 0.1358140942214332 0  3 0.75 0  1.5 1.5 0  0 0.4665179965989431 0  3 0.375 0  0 0.2986097381713344 0  0 0.21465560895753 0  0 0.1726785443506278 0  0 0.1516900120471767 0  2.25 1.5 0  0.75 1.5 0  1.169989811679434 0.9093651732355621 0  1.875 0.9142758100523694 0  0.5779365036100435 0.9330077223331824 0  2.43246936225428 0.7976868957014953 0  3 1.125 0  2.625 1.5 0  0.375 1.5 0  0 1.15116725672708 0  1.449253057879235 0.6213873587688492 0  0.7697361971202799 0.5943793911944208 0  0.3630076616442724 0.6080350564914153 0  2.069570984533324 0.5812833454367354 0  1.875 1.5 0  1.125 1.5 0  2.4375 1.173854331507092 0  0.8831005780031504 1.150004411874495 0  1.52207987625039 0.9714054497350916 0  2.0625 1.207137905026185 0  1.107793318688589 0.5766433232347881 0  1.3125 1.2274095306559 0  2.729985961523573 0.9375 0  2.711750443384031 0.5625 0  1.6875 1.243073622519403 0  1.760894209596057 0.6242614373612321 0  0.2643049832376852 0.9767508850906206 0  0.4566194854768236 1.209399638766609 0  2.728217267602858 1.228217267602858 0  2.374499195658668 0.518153287180279 0  2.169650674143702 0.9320836008992801 0  0.8550719231757007 0.8663457099410541 0  1.303567858855371 0.4078893824383345 0  0.2133194436665546 1.297827371069245 0  0.5308017499037517 0.4517023193912283 0  1.083077097725883 1.270382833575872 0  0.6830238102386342 1.274223132985906 0  2.250983943328481 0.6895458766515071 0  1.81089184968521 0.4192208869708923 0  1.679274712803154 0.8238291020339636 0  1.5785148524717 0.4510287526682343 0  0 0.6344262550265519 0  0.2138866804674432 0.765685327335986 0  0.5683532856219899 0.6602211278972628 0  0.9375 1.5 0  0.93201471049342 0.4568525359126817 0  1.262687644113192 0.7198627504483751 0  0.4154000952342595 0.8069446327163143 0  0.2139559556345817 0.4540330649264536 0  2.06977986811652 0.3813318272583126 0  0.7200651071201811 0.4061566188086219 0  1.932157822851692 0.7243325602448901 0  0.9441947922338874 0.689010158618046 0  3 1.3125 0  2.8125 1.5 0  0.5625 1.5 0  1.865575888969794 1.126762336039809 0  1.691368628814911 1.054521333692312 0  2.243682835689564 1.11932177110543 0  2.294933652681559 1.30886281903233 0  2.4375 1.5 0  2.385653526545621 0.9864303388879195 0  2.560603055863368 1.320052196970997 0  2.605098352881707 1.08210421072607 0  2.797310903081369 0.7462827406561878 0  1.497248537655819 1.30111187331848 0  1.6875 1.5 0  3 0.5625 0  3 0.9375 0  1.3125 1.5 0  2.0625 1.5 0  3 0.1875 0  0.1875 1.5 0  0.9978323986844071 0.9954535003819682 0  0.7455388243606953 1.020382929522352 0  1.904625246064701 1.312514164033404 0  1.15622562020362 1.097022204090454 0  1.332774827327096 1.015638362851981 0  2.617489052932561 0.7904306825848915 0  2.798834931624827 0.3810601956207291 0  2.518702939674024 0.6340258449062608 0  1.42862153170688 0.8082655083169574 0  2.016051725629557 1.02698392558818 0  2.557580898838836 0.4303899543284488 0  0.9143579924460792 1.324371521638632 0  0.6907201107072946 0.792483910827579 0  0 1.32558362836354 0  0 0.9767508850906206 0  0.6046140448732628 1.120294499938289 0  1.129353874055204 0.4037183319394277 0  2.240578803971554 0.4086758810341738 0  1.544887400155686 1.138911442832316 0  2.828734594747712 1.083464790593587 0  0.401358428169992 0.3487630281226344 0  0.1737226743516005 1.126953194380642 0  1.219293394173851 1.36370476532795 0  2.095593203128485 0.7438044944874065 0  1.099947866649755 0.7404984974094087 0  0.4225987016856009 0.9654760294046846 0  1.265404984472296 0.5615537191035901 0  1.908099381276504 0.55154028811489 0  1.605233217264331 0.6055204891939014 0  0.2070403235706232 0.6098576665994301 0  0.46875 1.369568887475175 0  2.529999076220762 0.9220559311443081 0  0.3296306516835505 1.118561581461605 0  2.136891098712708 1.353568952513092 0  0.1250262355603041 0.8895426992723907 0  2.286468869522623 0.8363516131379349 0  2.03024950667879 0.8782110935537075 0  2.71875 1.380113023166798 0  2.851157149000174 1.312122703709591 0  2.855875221692015 0.6072101925796368 0  1.766081959310164 1.371536811259701 0  2.417227117459742 0.3724437385102629 0  1.365276810157265 1.363519047380362 0  1.451310499971155 0.3640091006357036 0  2.211012611580202 0.5503989260541815 0  1.306789156675977 0.2570819477057019 0  2.872418607762505 0.256220469598872 0  2.896902016958361 0.84375 0  0.6487095286926469 0.5256523827174592 0  1.021477811485347 1.13286821063065 0  1.622350554793597 1.371881362989231 0  1.297557547403682 0.854343314165958 0  0.5529398034156436 0.7974238691464364 0  1.000783388185185 0.848708117631217 0  0.8152141294141361 0.735251676415229 0  2.383386472338196 0.654760318649699 0  1.031024064601143 1.39833771698851 0  1.812756223744312 0.7919737740986065 0  2.902150447032281 0.46875 0  1.558478314279628 0.7430881247578319 0  2.428095049619715 1.306700780290589 0  0.3309906154406318 1.369459454266083 0  0.117457385934373 0.361895434578648 0  0.4016309285334721 0.4812757168525422 0  1.933925005895449 0.3564723397117748 0  0.7479761182598068 1.155601287121883 0  0.09711831342126455 1.23837544254531 0  1.384025258268523 0.5094422387329146 0  2.188092881729461 1.235445092789212 0  0.116614462422195 1.388212202394539 0  0.5993432477835932 1.374610260003488 0  0.8731519049868882 1.022757560732678 0  0.1109021857268646 0.5275252102504697 0  1.703820060431276 0.5017282682884084 0  0.1118224159219883 0.6921053365242938 0  0.3267069786561488 1.244030051070764 0  2.878127312164905 0.9679608000003684 0  1.408346090782441 1.129729637108486 0  0.8047358880839842 0.3153623688883521 0  2.6405066654848 0.6664933064830099 0  0.4805702216488833 1.081724858267193 0  2.668084598222495 0.3562155878484895 0  2.138121375887776 1.052804865904559 0  1.96875 1.5 0  0.4891907154726056 0.5668366043293971 0  0.1473863332166031 1.0086557402922 0  2.558860649578938 1.196592162044302 0  1.717555244640741 0.3396535732296396 0  0.84375 1.5 0  0.7839942032523698 1.367093097528149 0  3 1.40625 0  2.484124862262918 1.060073596740424 0  3 1.21875 0  2.34375 1.5 0  0.8196209764267471 1.251369088398821 0  2.023202270335131 1.319214170177879 0  0.5721208504581607 1.233781127425821 0  1.984735816620384 0.462442873488178 0  0.6955333931194808 0.9118686683832042 0  1.19123464962554 1.213906677421382 0  0.8929803638185398 0.5752987850534633 0  1.566736823664244 0.8614646887466211 0  1.808684073906441 1.017786844668201 0  1.719105195888173 0.9374041347540488 0  1.671476674178274 0.70476362875428 0  1.218260709491531 0.330629071498573 0  2.839021519587611 1.19788439058923 0  0.5170070740021471 0.3361933937254621 0  1.393527188254162 0.91788143976
[...]
<PointData  Vectors="f_60"> 
<DataArray  type="Float64"  Name="f_60"  NumberOfComponents="3" format="ascii">-4.5386925927624547e-06 -3.9712615543028879e-04 0.0000000000000000e+00  -1.4234548299829765e-04 4.9638456708123737e-06 0.0000000000000000e+00  9.1264735793063887e-05 2.9901394858109206e-05 0.0000000000000000e+00  2.8202714837383065e-04 2.1187684922831533e-04 0.0000000000000000e+00  1.0622283234266906e-04 4.4642339069240133e-04 0.0000000000000000e+00  -3.9883836976200616e-04 5.3578477119924366e-04 0.0000000000000000e+00  4.7951016927490417e-05 7.5587281119081698e-04 0.0000000000000000e+00  6.1220692528260131e-04 6.5089908084340221e-04 0.0000000000000000e+00  -4.5158244278081431e-04 4.2253999573828549e-04 0.0000000000000000e+00  5.1188026928522317e-04 3.0071424737567696e-04 0.0000000000000000e+00  1.2963189312745611e-05 6.1202777721680655e-04 0.0000000000000000e+00  -3.6241110860344523e-04 8.6038951243299548e-04 0.0000000000000000e+00  2.2652155352460452e-04 2.5348359417870414e-05 0.0000000000000000e+00  2.6159241851076104e-04 1.1231958153658663e-04 0.0000000000000000e+00  7.0125764892468195e-05 4.1626850245418201e-04 0.0000000000000000e+00  -1.9077592870734216e-04 3.4393568558759274e-04 0.0000000000000000e+00  3.9405964099390416e-04 8.3954666019020496e-04 0.0000000000000000e+00  3.3265957499403395e-04 6.4516650919207140e-04 0.0000000000000000e+00  -2.8722417300554981e-04 3.5066678838748406e-04 0.0000000000000000e+00  4.8822419470348239e-04 2.3888610371550838e-04 0.0000000000000000e+00  -3.9951908504592330e-04 7.2752065996401708e-04 0.0000000000000000e+00  -1.8737354974928243e-05 6.3575136831605327e-04 0.0000000000000000e+00  -7.8814004778295918e-05 4.7938878864001280e-04 0.0000000000000000e+00  -2.4778339268354010e-04 1.4082732820031542e-04 0.0000000000000000e+00  3.0214156712016292e-04 7.1107889610293206e-04 0.0000000000000000e+00  4.7244208776849549e-04 7.2075163166092956e-04 0.0000000000000000e+00  -4.6879451599258001e-04 2.0898274031484252e-04 0.0000000000000000e+00  -1.3180919241248477e-04 2.3845972212580365e-04 0.0000000000000000e+00  -2.5150750509244464e-04 6.7074037795262608e-04 0.0000000000000000e+00  -1.8301452571649438e-04 6.3326438699764153e-04 0.0000000000000000e+00  4.7694057894155076e-04 5.4622353101838094e-04 0.0000000000000000e+00  -3.4231649985253583e-04 6.0634793182997931e-04 0.0000000000000000e+00  2.4061974649004707e-04 1.3246496933547747e-04 0.0000000000000000e+00  3.5526045999435617e-04 -1.9865498293406746e-04 0.0000000000000000e+00  -1.3105739701322374e-04 1.9614436039164793e-04 0.0000000000000000e+00  -4.4044074855927978e-04 6.1335330910718307e-04 0.0000000000000000e+00  1.1290530646606993e-04 8.3473458529258844e-04 0.0000000000000000e+00  3.1350425976146569e-04 6.5344833045788637e-04 0.0000000000000000e+00  1.6517009660408383e-04 2.9912136921149055e-04 0.0000000000000000e+00  1.1481000616685501e-04 3.8933465723030601e-04 0.0000000000000000e+00  2.6138145319983253e-05 4.3575575546038090e-04 0.0000000000000000e+00  -2.3234895946733363e-04 2.1202734859182565e-04 0.0000000000000000e+00  2.2388780843388039e-05 5.8970040296716058e-04 0.0000000000000000e+00  3.5196032206547055e-04 8.0574170343627766e-04 0.0000000000000000e+00  -3.0067929361743103e-04 3.0315473840439186e-04 0.0000000000000000e+00  -1.3385707328630942e-04 3.0527497295019238e-04 0.0000000000000000e+00  2.0322156380463618e-04 4.3111676110010156e-04 0.0000000000000000e+00  -6.4405004033557230e-04 7.5302938874261221e-04 0.0000000000000000e+00  5.9725226589238368e-04 6.1257594768126145e-04 0.0000000000000000e+00  2.7066980879816431e-04 5.0171809848683995e-04 0.0000000000000000e+00  -5.1292918135486176e-04 2.5593223294712692e-04 0.0000000000000000e+00  -2.4203492880026808e-04 3.2753207515321910e-04 0.0000000000000000e+00  -6.5700258283309045e-05 3.0891569743893673e-04 0.0000000000000000e+00  2.6410433259048746e-04 5.1101379537134208e-04 0.0000000000000000e+00  1.4052749871870101e-04 5.2369763780608209e-04 0.0000000000000000e+00  -6.1444534522084868e-05 7.2303973211490838e-04 0.0000000000000000e+00  5.3938396210838075e-04 4.8484044632049196e-04 0.0000000000000000e+00  -1.1126640626788373e-04 2.2655480080879567e-04 0.0000000000000000e+00  -3.7682275397758075e-04 2.4565222954452121e-04 0.0000000000000000e+00  -1.8677138845144185e-04 1.0006104420326932e-04 0.0000000000000000e+00  -1.1748586885259898e-05 5.9515873770072038e-05 0.0000000000000000e+00  -1.2002031175186683e-04 9.1432052398470452e-05 0.0000000000000000e+00  5.1046377997186071e-04 4.5020336146817938e-04 0.0000000000000000e+00  5.0695247020448241e-04 5.8974995765703189e-04 0.0000000000000000e+00  -4.7292192517860073e-04 4.0610181369719580e-04 0.0000000000000000e+00  2.8265518172941384e-04 6.7107221778404773e-04 0.0000000000000000e+00  3.4269665310344445e-04 6.1179790492803677e-04 0.0000000000000000e+00  -1.2967955877314321e-04 2.8577087064666861e-04 0.0000000000000000e+00  2.5615767898068284e-04 2.3320710062369292e-04 0.0000000000000000e+00  3.8312053284003938e-04 1.2402442385282791e-03 0.0000000000000000e+00  -1.0398956133079011e-03 7.4135401596577260e-04 0.0000000000000000e+00  1.5089248471212176e-03 5.4939824679873432e-04 0.0000000000000000e+00  4.2466808218380469e-04 8.7289502069598100e-04 0.0000000000000000e+00  4.3181915319502698e-04 5.0469218374099697e-04 0.0000000000000000e+00  5.5902192149790504e-04 3.7696680219562683e-04 0.0000000000000000e+00  1.6689713332377113e-04 -1.6477226207272091e-04 0.0000000000000000e+00  1.3535688001156964e-03 -8.9986461234795468e-04 0.0000000000000000e+00  -1.6886611593660035e-04 -6.5471106944267729e-04 0.0000000000000000e+00  -7.8373300760942578e-04 -6.3759042606159795e-05 0.0000000000000000e+00  1.8455110643101721e-04 -8.0360762496508394e-05 0.0000000000000000e+00  4.2801830988818175e-04 -2.4697246533520600e-04 0.0000000000000000e+00  2.0508674435433500e-04 -6.0572544497260026e-05 0.0000000000000000e+00  4.7831691193850822e-05 -1.3800106783833905e-05 0.0000000000000000e+00  -1.9632531073646886e-03 1.8647549569203873e-03 0.0000000000000000e+00  -1.6005056180273200e-03 2.1826306759873551e-03 0.0000000000000000e+00  -4.6127901246764628e-06 -1.4161650460045054e-05 0.0000000000000000e+00  2.2677495301714316e-04 2.2043123429204192e-04 0.0000000000000000e+00  2.8908636897931230e-04 -1.6510143941278273e-04 0.0000000000000000e+00  1.8741729012680076e-04 -5.3436072893767465e-04 0.0000000000000000e+00  3.2678031196166640e-06 5.0556884171987966e-05 0.0000000000000000e+00  -2.3576771572916076e-03 2.5037769640392967e-04 0.0000000000000000e+00  2.2191379747388707e-04 6.3968885616373422e-04 0.0000000000000000e+00  1.9155908944058265e-04 4.9601583580436955e-04 0.0000000000000000e+00  1.9127981582227867e-04 1.8258744366655787e-04 0.0000000000000000e+00  1.8565907366722247e-05 1.0079726502000355e-04 0.0000000000000000e+00  -1.1852068326551818e-04 -3.1946569167811708e-04 0.0000000000000000e+00  -2.6732194256810010e-05 -1.9704561527843662e-04 0.0000000000000000e+00  2.6440604753903796e-03 8.8440348804446756e-01 0.0000000000000000e+00  1.1575706852987446e-02 9.8727348726909428e-02 0.0000000000000000e+00  -1.4758768958517314e-03 9.5313508078491382e-01 0.0000000000000000e+00  -7.4666282158049914e-03 1.1998406527075227e+00 0.0000000000000000e+00  1.4262075195543621e-03 -1.2114590751488432e-04 0.0000000000000000e+00  -5.3925163969547783e-04 -5.4914646421605571e-04 0.0000000000000000e+00  1.0441633432376580e-04 -4.2884379854305632e-04 0.0000000000000000e+00  -1.5934127911489869e-05 1.7619010165173108e-05 0.0000000000000000e+00  3.1988759892553585e-02 5.3029985984371741e-01 0.0000000000000000e+00  3.4870245513897696e-02 -9.9943403855780344e-01 0.0000000000000000e+00  4.0824765751829722e-02 2.6216819469340785e-01 0.0000000000000000e+00  -4.2725270725721416e-02 9.9865717776358087e-01 0.0000000000000000e+00  6.5607590547820833e-05 -5.2753419739545769e-04 0.0000000000000000e+00  -2.3044240294705024e-04 -6.8572444144306393e-04 0.0000000000000000e+00  2.0787286489909665e-01 1.0685893273113616e+00 0.0000000000000000e+00  -4.0346448059228296e-02 1.0158190269094449e+00 0.0000000000000000e+00  -1.2477379596590973e-03 1.0025087936150578e+00 0.0000000000000000e+00  5.1562711903925751e-02 8.4501477434587646e-01 0.0000000000000000e+00  4.6727143455940381e-02 -3.7627677697620820e-01 0.0000000000000000e+00  -3.9596864322511277e-02 -7.5619560262877672e-01 0.0000000000000000e+00  1.6208187804612517e-01 1.5676253182378632e+00 0.0000000000000000e+00  -2.7495287224314113e-01 1.6380861929721218e+00 0.0000000000000000e+00  -2.2757069198735453e-02 -7.2427259932704879e-01 0.0000000000000000e+00  3.1517938589744388e-03 7.9114403335526839e-01 0.0000000000000000e+00  -3.4303839473527817e-03 7.5953458403363017e-01 0.0000000000000000e+00  -3.9850217385684852e-02 -1.0766743786930313e+00 0.0000000000000000e+00  5.0418924680149868e-01 1.4664271021592452e+00 0.0000000000000000e+00  -1.5500024697677103e-01 1.1883536876666223e+00 0.0000000000000000e+00  3.4999982792023078e-02 3.2458802140911808e-01 0.0000000000000000e+00  6.3266229245262425e-03 6.3257412620762554e-01 0.0000000000000000e+00  8.8284760174475133e-02 -5.8548246936710957e-01 0.0000000000000000e+00  -5.9050692487797832e-02 -2.5996738939088404e-01 0.0000000000000000e+00  6.9567617716304556e-02 8.2941457448311690e-02 0.0000000000000000e+00  -6.4021430214178929e-02 -8.0871102001576167e-01 0.0000000000000000e+00  -4.9622520023157375e-02 -1.9841834250418072e-01 0.0000000000000000e+00  -5.2187791855858486e-02 -8.5009738346950903e-01 0.0000000000000000e+00  -1.2787694067904993e-02 1.0731763556305753e+00 0.0000000000000000e+00  1.0005764772118987e-02 -8.3100126063400681e-01 0.0000000000000000e+00  4.8536682131046487e-03 -6.1055684752876378e-02 0.0000000000000000e+00  1.3573087785252136e-05 2.6947177293087568e-05 0.0000000000000000e+00  1.6313472995849430e-02 -2.8665643516052486e-01 0.0000000000000000e+00  3.3483747985582693e-02 8.2636733938822071e-01 0.0000000000000000e+00  6.5872270966356905e-04 -6.4108313686865018e-04 0.0000000000000000e+00  2.7389467070448148e-02 8.6028730248224028e-01 0.0000000000000000e+00  2.9190388648825928e-02 3.0347381823551572e-01 0.0000000000000000e+00  1.8879490340785544e-02 -8.2542490663175438e-01 0.0000000000000000e+00  6.5290532746030833e-02 -2.6036558443829533e-01 0.0000000000000000e+00  -6.5090853817121028e-02 9.3279818722371799e-01 0.0000000000000000e+00  2.6730070225587623e-02 -8.7208766567658569e-01 0.0000000000000000e+00  -6.2924733838620461e-03 -9.0026908523713089e-01 0.0000000000000000e+00  2.7450154673179471e-02 6.6191070771806515e-01 0.0000000000000000e+00  2.1988528211416849e-03 1.1939365770620634e-04 0.0000000000000000e+00  7.0322275257323342e-04 -5.9778489722182155e-04 0.0000000000000000e+00  -6.1198904039801313e-04 -7.1340702468726113e-04 0.0000000000000000e+00  1.3282839272658484e-02 2.8891340210287325e-01 0.0000000000000000e+00  7.8289065840280879e-04 -6.5062600457108122e-01 0.0000000000000000e+00  9.5932758851434347e-02 -8.8848441538709710e-01 0.0000000000000000e+00  1.3148074650186467e-01 -5.5077687951427778e-01 0.0000000000000000e+00  6.3364297261878685e-04 -7.3240040521326813e-04 0.0000000000000000e+00  1.0305009041655881e-01 1.3280411046483591e+00 0.0000000000000000e+00  3.5782030392067138e-01 -8.4395294030920454e-01 0.0000000000000000e+00  2.4567593632090934e-01 -5.8595497689190139e-02 0.0000000000000000e+00  -8.1015828748239108e-02 2.6945431808193193e-01 0.0000000000000000e+00  -4.9959270063132270e-02 1.0721468329103916e+00 0.0000000000000000e+00  6.1681627508883329e-04 -2.8289726955902679e-04 0.0000000000000000e+00  -4.2153117000523585e-04 -3.4351533610031165e-05 0.0000000000000000e+00  8.7564827222388604e-04 -4.7336424269846193e-05 0.0000000000000000e+00  -3.9197782709479278e-04 -4.0560835716851553e-04 0.0000000000000000e+00  -7.3476719594871894e-04 -5.5935110075224458e-04 0.0000000000000000e+00  -4.0968921824173265e-03 -6.3232964664350821e-04 0.0000000000000000e+00  4.5552063973204067e-04 -3.5560005514700087e-04 0.0000000000000000e+00  -9.6777058734552265e-03 -4.9256477476427085e-01 0.0000000000000000e+00  -1.2773646726122528e-02 -1.0794346250249705e+00 0.0000000000000000e+00  2.6450217689137700e-02 -5.6806079069980109e-01 0.0000000000000000e+00  -2.7180927324769819e-02 6.7171204483095037e-01 0.0000000000000000e+00  -7.5123887093805118e-03 -9.9064617072980321e-01 0.0000000000000000e+00  -1.6087348694570718e-02 3.7542028255918047e-01 0.0000000000000000e+00  -6.5106768483298405e-01 3.3762103611984465e-02 0.0000000000000000e+00  -1.5847743775263320e-01 -4.6245619017564676e-01 0.0000000000000000e+00  1.6587059285267158e-02 1.0089004459736298e-01 0.0000000000000000e+00  3.3064146171755231e-02 -9.3018379483484820e-02 0.0000000000000000e+00  -3.7103121739735212e-01 -6.8277557094212604e-01 0.0000000000000000e+00  -5.9420488884596154e-02 9.9563837843685599e-01 0.0000000000000000e+00  1.8138070648470610e-02 -3.4996448280654607e-01 0.0000000000000000e+00  2.7785833647484322e-05 -1.3750892595209121e-04 0.0000000000000000e+00  6.4051969694056259e-06 2.1597774148614483e-05 0.0000000000000000e+00  -3.2099376056679792e-02 1.0647617139187535e+00 0.0000000000000000e+00  1.0177291241492338e-01 1.2096126143577728e-01 0.0000000000000000e+00  -1.3974840869385616e-01 -9.0141060025968212e-01 0.0000000000000000e+00  -1.9134355602769826e-02 6.6387041894643661e-01 0.0000000000000000e+00  3.5364541495062951e-01 -1.6464648233188792e-01 0.0000000000000000e+00  3.7333482167872044e-02 -5.3892151106811015e-01 0.0000000000000000e+00  -1.3246498576889171e-02 -9.8215306658035817e-01 0.0000000000000000e+00  -4.6598447526422011e-02 9.2036214655688087e-01 0.0000000000000000e+00  -8.8845910594190069e-03 1.2340160192673459e+00 0.0000000000000000e+00  2.6779333595488824e-02 -5.3752221335314232e-01 0.0000000000000000e+00  -1.1279218148635534e-03 -9.2672761601324583e-01 0.0000000000000000e+00  5.3607257480831783e-02 2.4890373969310017e-01 0.0000000000000000e+00  -2.3790827009102442e-02 -6.1121960662091945e-01 0.0000000000000000e+00  1.5961519998177232e-02 -5.9929804785995755e-01 0.0000000000000000e+00  3.1214780749829606e-02 -4.2620653004707482e-01 0.0000000000000000e+00  -1.0558506748028351e-01 -9.2438459205060386e-01 0.0000000000000000e+00  7.7438571103249740e-02 -5.4002085178022419e-01 0.0000000000000000e+00  -2.3041178366595187e-02 8.5072415905812859e-01 0.0000000000000000e+00  1.1530529082006377e-01 8.1108264197654878e-01 0.0000000000000000e+00  4.7447165993216708e-03 -9.8144816756581177e-01 0.0000000000000000e+00  9.1770326495315482e-03 -5.2775576139200009e-01 0.0000000000000000e+00  1.5705793041370063e-02 2.4961925405364488e-01 0.0000000000000000e+00  6.6208862051736506e-01 1.2061321479280525e+00 0.0000000000000000e+00  7.6645068756773305e-01 -4.7146092656554883e-01 0.0000000000000000e+00  -2.7788210475118541e-01 -2.0976009641870744e-01 0.0000000000000000e+00  -9.1276324304179285e-02 7.6785993998988922e-01 0.0000000000000000e+00  -2.7004722663529784e-01 1.0909790027478725e+00 0.0000000000000000e+00  -8.9555944391413525e-02 -9.4918097526161016e-01 0.0000000000000000e+00  6.1124750838051189e-02 4.8117235928231233e-01 0.0000000000000000e+00  -9.1523633526446782e-02 -5.7846921109797766e-01 0.0000000000000000e+00  5.3092790542159554e-02 -6.1200432389405135e-01 0.0000000000000000e+00  -8.2120686110737218e-01 1.4724493971306787e-01 0.0000000000000000e+00  4.7131637512721085e-02 3.0355950085379774e-01 0.0000000000000000e+00  4.1315901212938551e-02 5.5685575370286422e-01 0.0000000000000000e+00  -3.1803425208035974e-02 -8.9149518339521316e-01 0.0000000000000000e+00  -3.4586645195568036e-03 -8.2514164175715421e-01 0.0000000000000000e+00  1.3225351543250767e-02 -4.6543002957415153e-01 0.0000000000000000e+00  1.7559056310868508e-02 5.7553384282642883e-01 0.0000000000000000e+00  1.1963573607769317e-02 -5.4499245352381143e-01 0.0000000000000000e+00  2.3050428021167434e-02 -2.2939844440442936e-01 0.0000000000000000e+00  -8.4559635055117960e-02 1.3219132873134809e+00 0.0000000000000000e+00  -3.3840620273747048e-02 -8.7490577070615549e-01 0.0000000000000000e+00  6.6685886976792881e-03 1.1215100500938020e+00 0.0000000000000000e+00  -4.7913255594588072e-01 5.5317066665434744e-01 0.0000000000000000e+00  1.5605989813723754e-02 4.0790319649396484e-01 0.0000000000000000e+00  2.5066503600906542e-01 1.0850515209508171e+00 0.0000000000000000e+00  -1.9436998773914915e-02 7.7444847355889113e-01 0.0000000000000000e+00  7.8183878819694103e-03 -7.5058102957923334e-01 0.0000000000000000e+00  6.1031031694594694e-02 -5.7023752270805295e-01 0.0000000000000000e+00  -6.3295090431402440e-02 -9.2579157011383606e-01 0.0000000000000000e+00  -3.5853244755635373e-02 -1.0816936034656102e+00 0.0000000000000000e+00  -1.0312728017300338e-02 -5.1601580733776242e-01 0.0000000000000000e+00  5.5116605217525406e-02 -8.2545948327745877e-01 0.0000000000000000e+00  9.8717301547966305e-02 -1.4213768417452269e-01 0.0000000000000000e+00  2.7850522137379204e-02 -7.4203143047324771e-01 0.0000000000000000e+00  -8.7974268958309731e-02 9.8120237528612630e-01 0.0000000000000000e+00  -1.7387796743579709e-02 9.1504704698738892e-01 0.0000000000000000e+00  2.4400591502229015e-02 -7.4157448584999996e-01 0.0000000000000000e+00  8.1181175235677579e-03 -4.2928235961691336e-01 0.0000000000000000e+00  1.5369889438029556e-02 -7.8514113592379897e-01 0.0000000000000000e+00  -4.0373385879971482e-02 8.8628886311146748e-01 0.0000000000000000e+00  2.1115401268142359e-01 -6.4987917084658134e-02 0.0000000000000000e+00  -2.3329539681254275e-02 -3.4392320895595924e-01 0.0000000000000000e+00  1.4078422288654682e-01 -4.1218701603837293e-01 0.0000000000000000e+00  -1.3889031909049643e-01 9.4120966928719629e-01 0.0000000000000000e+00  -1.9296744006949723e-02 -8.7664761623132548e-01 0.0000000000000000e+00  -5.3011278620035218e-01 1.3208961624839008e+00 0.0000000000000000e+00  5.7460008967514471e-02 9.2729602101355024e-01 0.0000000000000000e+00  4.0681400634535396e-04 -4.6085954002478621e-04 0.0000000000000000e+00  4.9532693132616656e-02 -7.6774755397998418e-01 0.0000000000000000e+00  -2.0321547257029799e-03 -1.1225407383104178e+00 0.0000000000000000e+00  2.9010275835828675e-01 -7.5125370459498397e-01 0.0000000000000000e+00  1.0981464015678226e-01 -1.4905374600355886e-01 0.0000000000000000e+00  -6.7640065777866364e-04 -5.2926380982020545e-04 0.0000000000000000e+00  -1.2869093810560203e-01 -7.4328901692418792e-01 0.0000000000000000e+00  1.6064486975327793e-03 1.5272458205714577e-05 0.0000000000000000e+00  1.6677931964921699e-01 1.9795554187770090e-01 0.0000000000000000e+00  1.6638576007184836e-03 -1.2362272265235082e-04 0.0000000000000000e+00  -5.4894912671483390e-04 -6.4767223615216137e-04 0.0000000000000000e+00  -6.3557428513579900e-02 -1.0504228126066328e-01 0.0000000000000000e+00  8.6864938191467747e-03 3.6948181035320444e-03 0.0000000000000000e+00  -5.5173088379764999e-02 8.9500966810184035e-01 0.0000000000000000e+00  -4.3916071445208114e-02 -7.1370019644534310e-01 0.0000000000000000e+00  2.6404503545233758e-03 -4.5658942683864595e-01 0.0000000000000000e+00  -4.8929641914513981e-02 1.0694115166899276e+00 0.0000000000000000e+00  3.4097042860579789e-02 1.0700729025323548e+00 0.0000000000000000e+00  8.7449883740171423e-03 2.3225684569519589e-01 0.0000000000000000e+00  9.3869471494876892e-03 1.1357965149273082e+00 0.0000000000000000e+00  8.0948598684110421e-03 -7.7059315439988618e-02 0.0000000000000000e+00  1.0999016609466216e-02 -9.2506869286312587e-01 0.0000000000000000e+00  1.2858288772173929e-01 9.9501886872002399e-01 0.0000000000000000e+00  5.3411249963800422e-01 -3.0816902707671046e-01 0.0000000000000000e+00  1.6459724130861167e-01 -2.3257384223770122e-01 0.0000000000000000e+00  5.9906383803030854e-03 -6.3845604369788767e-01 0.0000000000000000e+00  -3.5718439758645444e-03 1.1009475821188912e+00 0.0000000000000000e+00  6.0131326958067742e-03 7.3655435089521337e-01 0.0000000000000000e+00  -5.5918772814158796e-03 -6.8325045442470012e-01 0.0000000000000000e+00  1.1778313371002383e-01 9.1579356835042414e-01 0.0000