<?xml version="1.0"?>
<VTKFile type="UnstructuredGrid"  version="0.1"  >
<UnstructuredGrid>
<Piece  NumberOfPoints="4835" NumberOfCells="9296">
<Points>
<DataArray  type="Float64"  NumberOfComponents="3"  format="ascii">0 1.5 0  -0 0.1307014797437256 0  0.01134725726173103 0.1483581566929452 0  0.04283342385313163 0.181379897845022 0  0.08000000000000007 0.2078460969082653 0  0.1215036888038188 0.2268001964915204 0  0.1658444388144116 0.2375571460514239 0  0.2114196597976982 0.2397281614039219 0  0.2565821445222626 0.23323477639765 0  0.2996996031204527 0.2183116788850844 0  0.3392136582970876 0.1954982284920806 0  0.3736961691452169 0.1656189627557069 0  0.4019008478794835 0.1297537961893434 0  0.4059948616314525 0.1218125174167552 0  0.4254856317806581 0.1498156710261111 0  0.4592156240140376 0.1818784194956707 0  0.498709345141744 0.2064950441012706 0  0.5423499175804942 0.222657737339227 0  0.588350691167096 0.2297047966493422 0  0.6348283888260526 0.2273477145954656 0  0.6798802081543086 0.2156829903938285 0  0.7216617223752013 0.1951881792237927 0  0.7584623913874079 0.1667023410626976 0  0.7879811633353602 0.1323170874919288 0  0.8152477706948351 0.1684239109116393 0  0.849341340905186 0.1995043068200599 0  0.8885654110558655 0.2237908228387656 0  0.9315842524819793 0.2404564107932048 0  0.9769329101341745 0.2489335440737586 0  1.023067089865825 0.2489335440737586 0  1.068415747518021 0.2404564107932048 0  1.111434588944135 0.2237908228387656 0  1.150658659094814 0.1995043068200599 0  1.184752229305165 0.1684239109116393 0  1.212554283932403 0.1316080407193389 0  1.233118057351089 0.09031041654678823 0  1.245743274920975 0.04593737945414259 0  1.25 0 0  1.36108673858246 0 0  1.36108673858246 0.02281345039300389 0  1.369721686332521 0.06761581364194322 0  1.386679492322819 0.1099743652145785 0  1.411347257261731 0.1483581566929452 0  1.442833423853132 0.181379897845022 0  1.48 0.2078460969082653 0  1.521503688803819 0.2268001964915204 0  1.565844438814412 0.2375571460514239 0  1.611419659797698 0.2397281614039219 0  1.656582144522263 0.23323477639765 0  1.699699603120453 0.2183116788850844 0  1.739213658297088 0.1954982284920806 0  1.765497292517293 0.1727233297951148 0  1.79 0.1905255888325765 0  1.832016261237511 0.2092324335849338 0  1.877003738081116 0.2187948169810202 0  1.922996261918884 0.2187948169810201 0  1.967983738762488 0.2092324335849338 0  2.01 0.1905255888325765 0  2.047208733398949 0.1634918616050267 0  2.077983738762488 0.1293127555043441 0  2.087980221556173 0.1119983394086949 0  2.111347257261731 0.1483581566929452 0  2.142833423853131 0.181379897845022 0  2.18 0.2078460969082653 0  2.221503688803819 0.2268001964915204 0  2.265844438814411 0.2375571460514239 0  2.311419659797698 0.2397281614039219 0  2.356582144522263 0.23323477639765 0  2.399699603120453 0.2183116788850844 0  2.439213658297088 0.1954982284920806 0  2.457172785224357 0.179936556425434 0  2.459215624014038 0.1818784194956707 0  2.498709345141744 0.2064950441012706 0  2.542349917580494 0.222657737339227 0  2.588350691167096 0.2297047966493422 0  2.634828388826053 0.2273477145954656 0  2.679880208154309 0.2156829903938285 0  2.721661722375202 0.1951881792237927 0  2.758462391387408 0.1667023410626976 0  2.788775591477674 0.1313916894718022 0  2.811360296672653 0.09070184667606328 0  2.825291886488074 0.04629865962039181 0  2.83 0 0  3 0 0  3 1.5 0  0 0.8023345134541607 0  0.4157402467060553 0.1358140942214332 0  3 0.75 0  1.5 1.5 0  0 0.4665179965989431 0  3 0.375 0  0 0.2986097381713344 0  0 0.21465560895753 0  0 0.1726785443506278 0  0 0.1516900120471767 0  2.25 1.5 0  0.75 1.5 0  1.169989811679434 0.9093651732355621 0  1.875 0.9142758100523694 0  0.5779365036100435 0.9330077223331824 0  2.43246936225428 0.7976868957014953 0  3 1.125 0  2.625 1.5 0  0.375 1.5 0  0 1.15116725672708 0  1.449253057879235 0.6213873587688492 0  0.7697361971202799 0.5943793911944208 0  0.3630076616442724 0.6080350564914153 0  2.069570984533324 0.5812833454367354 0  1.875 1.5 0  1.125 1.5 0  2.4375 1.173854331507092 0  0.8831005780031504 1.150004411874495 0  1.52207987625039 0.9714054497350916 0  2.0625 1.207137905026185 0  1.107793318688589 0.5766433232347881 0  1.3125 1.2274095306559 0  2.729985961523573 0.9375 0  2.711750443384031 0.5625 0  1.6875 1.243073622519403 0  1.760894209596057 0.6242614373612321 0  0.2643049832376852 0.9767508850906206 0  0.4566194854768236 1.209399638766609 0  2.728217267602858 1.228217267602858 0  2.374499195658668 0.518153287180279 0  2.169650674143702 0.9320836008992801 0  0.8550719231757007 0.8663457099410541 0  1.303567858855371 0.4078893824383345 0  0.2133194436665546 1.297827371069245 0  0.5308017499037517 0.4517023193912283 0  1.083077097725883 1.270382833575872 0  0.6830238102386342 1.274223132985906 0  2.250983943328481 0.6895458766515071 0  1.81089184968521 0.4192208869708923 0  1.679274712803154 0.8238291020339636 0  1.5785148524717 0.4510287526682343 0  0 0.6344262550265519 0  0.2138866804674432 0.765685327335986 0  0.5683532856219899 0.6602211278972628 0  0.9375 1.5 0  0.93201471049342 0.4568525359126817 0  1.262687644113192 0.7198627504483751 0  0.4154000952342595 0.8069446327163143 0  0.2139559556345817 0.4540330649264536 0  2.06977986811652 0.3813318272583126 0  0.7200651071201811 0.4061566188086219 0  1.932157822851692 0.7243325602448901 0  0.9441947922338874 0.689010158618046 0  3 1.3125 0  2.8125 1.5 0  0.5625 1.5 0  1.865575888969794 1.126762336039809 0  1.691368628814911 1.054521333692312 0  2.243682835689564 1.11932177110543 0  2.294933652681559 1.30886281903233 0  2.4375 1.5 0  2.385653526545621 0.9864303388879195 0  2.560603055863368 1.320052196970997 0  2.605098352881707 1.08210421072607 0  2.797310903081369 0.7462827406561878 0  1.497248537655819 1.30111187331848 0  1.6875 1.5 0  3 0.5625 0  3 0.9375 0  1.3125 1.5 0  2.0625 1.5 0  3 0.1875 0  0.1875 1.5 0  0.9978323986844071 0.9954535003819682 0  0.7455388243606953 1.020382929522352 0  1.904625246064701 1.312514164033404 0  1.15622562020362 1.097022204090454 0  1.332774827327096 1.015638362851981 0  2.617489052932561 0.7904306825848915 0  2.798834931624827 0.3810601956207291 0  2.518702939674024 0.6340258449062608 0  1.42862153170688 0.8082655083169574 0  2.016051725629557 1.02698392558818 0  2.557580898838836 0.4303899543284488 0  0.9143579924460792 1.324371521638632 0  0.6907201107072946 0.792483910827579 0  0 1.32558362836354 0  0 0.9767508850906206 0  0.6046140448732628 1.120294499938289 0  1.129353874055204 0.4037183319394277 0  2.240578803971554 0.4086758810341738 0  1.544887400155686 1.138911442832316 0  2.828734594747712 1.083464790593587 0  0.401358428169992 0.3487630281226344 0  0.1737226743516005 1.126953194380642 0  1.219293394173851 1.36370476532795 0  2.095593203128485 0.7438044944874065 0  1.099947866649755 0.7404984974094087 0  0.4225987016856009 0.9654760294046846 0  1.265404984472296 0.5615537191035901 0  1.908099381276504 0.55154028811489 0  1.605233217264331 0.6055204891939014 0  0.2070403235706232 0.6098576665994301 0  0.46875 1.369568887475175 0  2.529999076220762 0.9220559311443081 0  0.3296306516835505 1.118561581461605 0  2.136891098712708 1.353568952513092 0  0.1250262355603041 0.8895426992723907 0  2.286468869522623 0.8363516131379349 0  2.03024950667879 0.8782110935537075 0  2.71875 1.380113023166798 0  2.851157149000174 1.312122703709591 0  2.855875221692015 0.6072101925796368 0  1.766081959310164 1.371536811259701 0  2.417227117459742 0.3724437385102629 0  1.365276810157265 1.363519047380362 0  1.451310499971155 0.3640091006357036 0  2.211012611580202 0.5503989260541815 0  1.306789156675977 0.2570819477057019 0  2.872418607762505 0.256220469598872 0  2.896902016958361 0.84375 0  0.6487095286926469 0.5256523827174592 0  1.021477811485347 1.13286821063065 0  1.622350554793597 1.371881362989231 0  1.297557547403682 0.854343314165958 0  0.5529398034156436 0.7974238691464364 0  1.000783388185185 0.848708117631217 0  0.8152141294141361 0.735251676415229 0  2.383386472338196 0.654760318649699 0  1.031024064601143 1.39833771698851 0  1.812756223744312 0.7919737740986065 0  2.902150447032281 0.46875 0  1.558478314279628 0.7430881247578319 0  2.428095049619715 1.306700780290589 0  0.3309906154406318 1.369459454266083 0  0.117457385934373 0.361895434578648 0  0.4016309285334721 0.4812757168525422 0  1.933925005895449 0.3564723397117748 0  0.7479761182598068 1.155601287121883 0  0.09711831342126455 1.23837544254531 0  1.384025258268523 0.5094422387329146 0  2.188092881729461 1.235445092789212 0  0.116614462422195 1.388212202394539 0  0.5993432477835932 1.374610260003488 0  0.8731519049868882 1.022757560732678 0  0.1109021857268646 0.5275252102504697 0  1.703820060431276 0.5017282682884084 0  0.1118224159219883 0.6921053365242938 0  0.3267069786561488 1.244030051070764 0  2.878127312164905 0.9679608000003684 0  1.408346090782441 1.129729637108486 0  0.8047358880839842 0.3153623688883521 0  2.6405066654848 0.6664933064830099 0  0.4805702216488833 1.081724858267193 0  2.668084598222495 0.3562155878484895 0  2.138121375887776 1.052804865904559 0  1.96875 1.5 0  0.4891907154726056 0.5668366043293971 0  0.1473863332166031 1.0086557402922 0  2.558860649578938 1.196592162044302 0  1.717555244640741 0.3396535732296396 0  0.84375 1.5 0  0.7839942032523698 1.367093097528149 0  3 1.40625 0  2.484124862262918 1.060073596740424 0  3 1.21875 0  2.34375 1.5 0  0.8196209764267471 1.251369088398821 0  2.023202270335131 1.319214170177879 0  0.5721208504581607 1.233781127425821 0  1.984735816620384 0.462442873488178 0  0.6955333931194808 0.9118686683832042 0  1.19123464962554 1.213906677421382 0  0.8929803638185398 0.5752987850534633 0  1.566736823664244 0.8614646887466211 0  1.808684073906441 1.017786844668201 0  1.719105195888173 0.9374041347540488 0  1.671476674178274 0.70476362875428 0  1.218260709491531 0.330629071498573 0  2.839021519587611 1.19788439058923 0  0.5170070740021471 0.3361933937254621 0  1.393527188254162 0.91788143976
[...]
<PointData  Vectors="f_60"> 
<DataArray  type="Float64"  Name="f_60"  NumberOfComponents="3" format="ascii">-6.4159534076505521e-05 -3.2223031629904339e-04 0.0000000000000000e+00  -9.7543102508337618e-05 9.8798410256592236e-06 0.0000000000000000e+00  7.2479177849025595e-05 2.5984423350441435e-05 0.0000000000000000e+00  3.5927891608237455e-04 2.2387415969448563e-04 0.0000000000000000e+00  1.7024015553639171e-04 6.0272350264704106e-04 0.0000000000000000e+00  -4.7492585805523994e-04 7.0872879812848468e-04 0.0000000000000000e+00  -6.7200258400518953e-05 8.8736560213018326e-04 0.0000000000000000e+00  6.9481515415779254e-04 8.7655124330471594e-04 0.0000000000000000e+00  -6.1899557559721790e-04 5.7430545470476039e-04 0.0000000000000000e+00  7.4866499340550295e-04 4.1319848889731167e-04 0.0000000000000000e+00  7.8083678605466705e-05 8.8173599864170918e-04 0.0000000000000000e+00  -4.6759726482993878e-04 1.1011488230050573e-03 0.0000000000000000e+00  9.6681653152469574e-05 1.3975744359386600e-04 0.0000000000000000e+00  9.5582632748948730e-05 1.2966026099398329e-04 0.0000000000000000e+00  1.1700682405470317e-04 3.6224486889466857e-04 0.0000000000000000e+00  -1.3417711234409171e-04 3.9871293134897002e-04 0.0000000000000000e+00  3.8613518254204297e-04 9.7200022865507653e-04 0.0000000000000000e+00  4.9291713198572394e-04 9.4719266177877308e-04 0.0000000000000000e+00  -3.7757434824221462e-04 4.9424050419434682e-04 0.0000000000000000e+00  6.6649684916246532e-04 3.4717320930384481e-04 0.0000000000000000e+00  -4.5360604730544575e-04 9.2502755642973316e-04 0.0000000000000000e+00  -1.4430527436553033e-04 7.5946612266862264e-04 0.0000000000000000e+00  -1.2193134232121835e-04 4.5758529663716166e-04 0.0000000000000000e+00  -1.6913950938929779e-04 9.1693787647816792e-05 0.0000000000000000e+00  3.0662445749687298e-04 7.2506184521112964e-04 0.0000000000000000e+00  6.5874033736898214e-04 1.0872372372425587e-03 0.0000000000000000e+00  -6.5592128005717500e-04 3.8070259141104981e-04 0.0000000000000000e+00  -2.7343232015927403e-04 2.5752762739099047e-04 0.0000000000000000e+00  -2.0400197411897587e-04 9.6023941891018691e-04 0.0000000000000000e+00  -2.3470053379994249e-04 8.1220533498259817e-04 0.0000000000000000e+00  5.1949843577540737e-04 7.2135211805370340e-04 0.0000000000000000e+00  -5.9704379280675981e-04 9.1064288002770080e-04 0.0000000000000000e+00  4.0496051473139314e-04 7.7725340463723775e-05 0.0000000000000000e+00  5.6672406170059256e-04 -2.9665780486516115e-04 0.0000000000000000e+00  -1.3969864720952320e-04 3.7154994787112836e-04 0.0000000000000000e+00  -6.3432824280380221e-04 9.4385484685115067e-04 0.0000000000000000e+00  9.2500678248606162e-05 9.7196318577607156e-04 0.0000000000000000e+00  3.7312126178730285e-04 6.6062556794650891e-04 0.0000000000000000e+00  1.9853686242904652e-04 2.3640349434669316e-04 0.0000000000000000e+00  2.0081142005768505e-04 3.8610918003837563e-04 0.0000000000000000e+00  1.2185878785709967e-04 6.3000019584804820e-04 0.0000000000000000e+00  -1.7774958936341684e-04 3.4081270736898372e-04 0.0000000000000000e+00  -2.2840657248251241e-05 6.6930229787820093e-04 0.0000000000000000e+00  4.0672371192810620e-04 9.8034011308992816e-04 0.0000000000000000e+00  -4.0782307717537110e-04 4.7460188777919370e-04 0.0000000000000000e+00  -2.0557490364436700e-04 4.0620390277299303e-04 0.0000000000000000e+00  2.9795118097659099e-04 5.6954663578874932e-04 0.0000000000000000e+00  -7.7423573562094119e-04 9.5591979233923107e-04 0.0000000000000000e+00  7.3337207554801157e-04 7.5100170072709739e-04 0.0000000000000000e+00  2.9211290369991327e-04 7.2274810506154697e-04 0.0000000000000000e+00  -6.7887334711446768e-04 3.6777260198390070e-04 0.0000000000000000e+00  -4.0685365394445007e-04 3.0377488814227195e-04 0.0000000000000000e+00  -1.5253562321572569e-04 2.9478550283062169e-04 0.0000000000000000e+00  3.3800031430658329e-04 6.7712794089548503e-04 0.0000000000000000e+00  2.1542172818613461e-04 7.5754218442483352e-04 0.0000000000000000e+00  -1.9086199083270560e-05 8.7515350973033838e-04 0.0000000000000000e+00  6.2499730782406633e-04 5.8976267053635904e-04 0.0000000000000000e+00  -2.8398297673695467e-04 3.7577855732696887e-04 0.0000000000000000e+00  -4.9389128375546497e-04 3.0757471236634714e-04 0.0000000000000000e+00  -2.1520297569198009e-04 1.0289597606694149e-04 0.0000000000000000e+00  -1.0133321300876366e-05 3.6614439079640714e-05 0.0000000000000000e+00  -1.4030523108639722e-04 5.7827597697124745e-05 0.0000000000000000e+00  6.8502147972840767e-04 6.0732076742787381e-04 0.0000000000000000e+00  5.8891875289224412e-04 8.9076118734186620e-04 0.0000000000000000e+00  -4.6487982521113187e-04 6.0394666401796838e-04 0.0000000000000000e+00  4.1796686236995119e-04 8.3149462356260043e-04 0.0000000000000000e+00  2.0344643310430947e-04 7.6964712469069986e-04 0.0000000000000000e+00  7.0755716430956724e-05 2.7496930999166880e-04 0.0000000000000000e+00  3.6367950227994469e-04 5.5759738788866027e-04 0.0000000000000000e+00  5.7755168409158637e-04 1.2949473061334017e-03 0.0000000000000000e+00  -1.0833027813566105e-03 4.5132292248376075e-04 0.0000000000000000e+00  7.8650563965222730e-04 4.2478428823427612e-04 0.0000000000000000e+00  4.1600394571758819e-04 9.3983614638964345e-04 0.0000000000000000e+00  9.2151579850520036e-04 6.9227359646652610e-04 0.0000000000000000e+00  6.8916386264340215e-04 3.9486043699991496e-04 0.0000000000000000e+00  8.5179824796548188e-04 -5.1278558947856620e-04 0.0000000000000000e+00  1.5575620016570384e-03 -5.7999996374645795e-04 0.0000000000000000e+00  -7.4023762021587012e-04 -1.0567296132039654e-04 0.0000000000000000e+00  -2.2802832980711233e-04 -2.2479236978739344e-04 0.0000000000000000e+00  6.8510869199274959e-04 -3.6563566955645911e-04 0.0000000000000000e+00  -1.6611895189896946e-05 1.7407072728854191e-04 0.0000000000000000e+00  -1.4426748307042320e-05 1.3003791279202469e-04 0.0000000000000000e+00  -3.4161866556584295e-05 2.8926907880979915e-05 0.0000000000000000e+00  -2.0507574643870564e-03 1.0917858749995965e-03 0.0000000000000000e+00  -8.8952258629429589e-04 -4.0576103867950017e-04 0.0000000000000000e+00  -4.0126410380882307e-06 8.5991855201826565e-06 0.0000000000000000e+00  1.3408674213600302e-04 2.2990767692794310e-04 0.0000000000000000e+00  -1.1767513380571408e-04 -3.4419051451616944e-04 0.0000000000000000e+00  2.9660101060857556e-04 -6.0586586482004091e-04 0.0000000000000000e+00  -5.3890766363771094e-06 7.5331649157210707e-05 0.0000000000000000e+00  -4.7099390405640163e-03 4.6946283720911863e-04 0.0000000000000000e+00  3.2634471903253870e-04 1.0008450749075045e-03 0.0000000000000000e+00  2.5493634959672883e-04 6.3455500510835447e-04 0.0000000000000000e+00  2.2060288455669097e-04 1.7694123033582139e-04 0.0000000000000000e+00  1.5024786155434738e-05 7.5973283566497987e-05 0.0000000000000000e+00  -2.6523941490878291e-04 -3.9921559163256826e-04 0.0000000000000000e+00  5.0009523624410272e-05 -2.3578877719885027e-04 0.0000000000000000e+00  3.4362139626274539e-04 1.3524049350980389e+00 0.0000000000000000e+00  1.6261686665331621e-02 1.5659693782217107e-01 0.0000000000000000e+00  -6.8811086660685332e-03 1.4595654489105727e+00 0.0000000000000000e+00  8.3486508284968844e-04 1.8204771896283884e+00 0.0000000000000000e+00  1.7289196968672583e-03 -2.6231312013781942e-04 0.0000000000000000e+00  -3.4885039030694742e-05 -7.3121679056075263e-04 0.0000000000000000e+00  -7.7547769628528925e-05 -5.2451663774289543e-04 0.0000000000000000e+00  -1.0462117279557618e-05 -1.1328883448447821e-05 0.0000000000000000e+00  5.3731370783114733e-02 7.8934760210062027e-01 0.0000000000000000e+00  5.6367180070084413e-02 -1.5358658116240771e+00 0.0000000000000000e+00  6.2652088340492421e-02 4.3186987988548625e-01 0.0000000000000000e+00  -5.6864696763512648e-02 1.5380526735813744e+00 0.0000000000000000e+00  8.2352892213190997e-06 -7.4729455791797345e-04 0.0000000000000000e+00  -3.3118728531000298e-04 -9.9278273825154561e-04 0.0000000000000000e+00  3.2197213881701020e-01 1.7276205683142594e+00 0.0000000000000000e+00  -6.8408085317668982e-02 1.5633555199452502e+00 0.0000000000000000e+00  -4.8327130976367717e-03 1.5332631267653474e+00 0.0000000000000000e+00  7.7552866475899720e-02 1.2727976749103440e+00 0.0000000000000000e+00  6.9894869939231052e-02 -6.0442401688926040e-01 0.0000000000000000e+00  -5.8482647175314609e-02 -1.1791564300364918e+00 0.0000000000000000e+00  2.7721411006899649e-01 2.4393680410983198e+00 0.0000000000000000e+00  -3.9206773594032213e-01 2.3889625884206831e+00 0.0000000000000000e+00  -3.2345300876779393e-02 -1.0997569812852035e+00 0.0000000000000000e+00  7.4373817971753161e-03 1.2041997008647711e+00 0.0000000000000000e+00  -8.9057689732268686e-03 1.1655584225620492e+00 0.0000000000000000e+00  -5.7680907803215609e-02 -1.6401520498908990e+00 0.0000000000000000e+00  7.9361042113570324e-01 2.3620963985928509e+00 0.0000000000000000e+00  -2.2283080224761864e-01 1.8418838841108611e+00 0.0000000000000000e+00  5.0292414562876420e-02 5.1433388376411604e-01 0.0000000000000000e+00  6.9586159385839185e-03 9.6483053907520178e-01 0.0000000000000000e+00  1.4111746357311897e-01 -8.3155684012674413e-01 0.0000000000000000e+00  -9.4014844312295606e-02 -3.5811238449202920e-01 0.0000000000000000e+00  1.1055966925404681e-01 8.3821564123105735e-02 0.0000000000000000e+00  -9.5209009307140088e-02 -1.2094851725296227e+00 0.0000000000000000e+00  -7.7150626240166206e-02 -3.4165461714462497e-01 0.0000000000000000e+00  -8.9033155231777850e-02 -1.2973536650099176e+00 0.0000000000000000e+00  -1.9185910620160212e-02 1.6368828104708288e+00 0.0000000000000000e+00  1.7755308001441990e-02 -1.2752312574307068e+00 0.0000000000000000e+00  1.0851455281589350e-02 -9.0235512432641329e-02 0.0000000000000000e+00  5.5212903086926629e-06 7.4787664247538115e-06 0.0000000000000000e+00  2.5447068588565918e-02 -4.4681524956581831e-01 0.0000000000000000e+00  5.0395695461287117e-02 1.2488644376222944e+00 0.0000000000000000e+00  7.1969137671619107e-04 -7.9319233417443960e-04 0.0000000000000000e+00  4.6076003123083221e-02 1.3294347334557863e+00 0.0000000000000000e+00  4.3929557409757992e-02 4.8606797569335353e-01 0.0000000000000000e+00  3.2878189856614448e-02 -1.2521892674638078e+00 0.0000000000000000e+00  1.0677822868558161e-01 -4.3413384462200849e-01 0.0000000000000000e+00  -9.7438788701180001e-02 1.4527791820445777e+00 0.0000000000000000e+00  4.1068196231871169e-02 -1.3146115171937112e+00 0.0000000000000000e+00  -1.2216018294310467e-02 -1.3775370559608753e+00 0.0000000000000000e+00  4.0916372580348172e-02 1.0272348094237536e+00 0.0000000000000000e+00  2.0706640105578808e-03 3.0127219166952080e-04 0.0000000000000000e+00  2.2808389119748471e-03 -9.4508196026146319e-04 0.0000000000000000e+00  -6.5448886921560851e-04 -8.7828030693656053e-04 0.0000000000000000e+00  1.7361647470192584e-02 4.4775206011896757e-01 0.0000000000000000e+00  3.0963644410563233e-03 -9.9630744458324472e-01 0.0000000000000000e+00  1.3802969655410965e-01 -1.3608909157078244e+00 0.0000000000000000e+00  1.9935660053887880e-01 -9.2525767052362307e-01 0.0000000000000000e+00  5.4252698365094931e-04 -9.0961621522261753e-04 0.0000000000000000e+00  1.7003922281570133e-01 2.0127563482533111e+00 0.0000000000000000e+00  5.3701953717061734e-01 -1.3361216594805259e+00 0.0000000000000000e+00  3.6148955842613645e-01 -2.4251907765892208e-01 0.0000000000000000e+00  -1.5109554889172194e-01 3.4816588259769898e-01 0.0000000000000000e+00  -8.2444892738762557e-02 1.6380889414817550e+00 0.0000000000000000e+00  8.6118485921038565e-04 -3.0455529740810484e-04 0.0000000000000000e+00  -1.2893206495556509e-03 -2.2605567900344713e-04 0.0000000000000000e+00  1.1256394052027439e-03 -6.4544145663858360e-05 0.0000000000000000e+00  -6.0045257804984921e-04 -5.0949398313869195e-04 0.0000000000000000e+00  -8.8521531216594008e-04 -6.1816751756051049e-04 0.0000000000000000e+00  -5.8761771681286453e-03 -8.3927516308431331e-04 0.0000000000000000e+00  6.1067886170104572e-04 -5.3920882708869951e-04 0.0000000000000000e+00  -1.2949138432704477e-02 -7.5933407351329985e-01 0.0000000000000000e+00  -1.5281493133598259e-02 -1.6510349234846999e+00 0.0000000000000000e+00  4.0234577714922566e-02 -8.6715496852622176e-01 0.0000000000000000e+00  -4.5342029366504236e-02 1.0421119976706950e+00 0.0000000000000000e+00  -7.3285797307488226e-03 -1.5179233139218773e+00 0.0000000000000000e+00  -2.2585060312843484e-02 5.8628488133628209e-01 0.0000000000000000e+00  -1.0603147550145524e+00 -2.1842277830960763e-01 0.0000000000000000e+00  -2.6588800487497721e-01 -7.6108718999057035e-01 0.0000000000000000e+00  2.7629202813466348e-02 1.4285754172937684e-01 0.0000000000000000e+00  5.1718617084248811e-02 -1.6570420952369003e-01 0.0000000000000000e+00  -5.7702874496859691e-01 -9.3669825758323200e-01 0.0000000000000000e+00  -9.4809587835741629e-02 1.5028623903946794e+00 0.0000000000000000e+00  2.9511663037863907e-02 -5.2196162359016363e-01 0.0000000000000000e+00  6.0820022314496717e-05 -2.5484494021272083e-04 0.0000000000000000e+00  3.7568548322367800e-06 8.6013769544393962e-06 0.0000000000000000e+00  -5.5700222259981481e-02 1.6273067041750315e+00 0.0000000000000000e+00  1.5672974010464902e-01 1.2869089524767549e-01 0.0000000000000000e+00  -2.1358876968770246e-01 -1.3766505491699823e+00 0.0000000000000000e+00  -3.2730733675620800e-02 1.0053062574908793e+00 0.0000000000000000e+00  5.0307926116867041e-01 -1.3391253614678489e-01 0.0000000000000000e+00  5.7246708512294353e-02 -7.8127029040050433e-01 0.0000000000000000e+00  -1.8452917763129840e-02 -1.4917309290495755e+00 0.0000000000000000e+00  -7.1605934937967922e-02 1.3760250732378785e+00 0.0000000000000000e+00  -6.1517076049703474e-03 1.8829147876443826e+00 0.0000000000000000e+00  4.1935832239159476e-02 -8.3618414270977415e-01 0.0000000000000000e+00  1.3614792171936301e-03 -1.4169046076417799e+00 0.0000000000000000e+00  8.0449354028165831e-02 4.2304231368497303e-01 0.0000000000000000e+00  -3.7669137030819692e-02 -9.4352596422316737e-01 0.0000000000000000e+00  2.6975906133547362e-02 -9.0775865194203453e-01 0.0000000000000000e+00  5.0155821474384750e-02 -6.6976327018041115e-01 0.0000000000000000e+00  -1.5338262379977632e-01 -1.4005737324239682e+00 0.0000000000000000e+00  9.2888543841917262e-02 -8.1416398678814028e-01 0.0000000000000000e+00  -4.0345490894486837e-02 1.2931076271460451e+00 0.0000000000000000e+00  1.7425606055970189e-01 1.2697281670393818e+00 0.0000000000000000e+00  9.5565943473467363e-03 -1.4975337932760642e+00 0.0000000000000000e+00  6.9191271585140957e-03 -8.1595074834514025e-01 0.0000000000000000e+00  2.6728466230173893e-02 3.7073224024224927e-01 0.0000000000000000e+00  9.5759090663107782e-01 1.8650419551241628e+00 0.0000000000000000e+00  1.1239166195993102e+00 -5.9406944044640231e-01 0.0000000000000000e+00  -4.6954916254944551e-01 -2.6046324753034050e-01 0.0000000000000000e+00  -1.5305668566493058e-01 1.1808943706051793e+00 0.0000000000000000e+00  -4.0296384875469665e-01 1.5679013598280505e+00 0.0000000000000000e+00  -1.3691918090314428e-01 -1.4511405702662536e+00 0.0000000000000000e+00  9.4404350436706697e-02 7.0475658910761962e-01 0.0000000000000000e+00  -1.4436911650668754e-01 -9.2170703350898364e-01 0.0000000000000000e+00  7.2424449258401774e-02 -8.8143286205593463e-01 0.0000000000000000e+00  -1.1849308373142753e+00 6.3135663668712594e-01 0.0000000000000000e+00  5.1628506009968024e-02 4.4451783494938146e-01 0.0000000000000000e+00  6.3365852146561166e-02 8.7508429460425108e-01 0.0000000000000000e+00  -4.5014650115118092e-02 -1.3763317016126564e+00 0.0000000000000000e+00  -8.1311128284077289e-03 -1.2884336440240196e+00 0.0000000000000000e+00  2.2780579429584759e-02 -7.0260681917117274e-01 0.0000000000000000e+00  2.5772126302548569e-02 8.7043157910428337e-01 0.0000000000000000e+00  2.0075339404321244e-02 -8.2759102078184077e-01 0.0000000000000000e+00  3.6572331856614175e-02 -3.6390956166271116e-01 0.0000000000000000e+00  -1.1034536342977165e-01 2.0244242161808468e+00 0.0000000000000000e+00  -5.6797178610342502e-02 -1.3581417299702541e+00 0.0000000000000000e+00  1.1539875164059266e-02 1.7139321322268124e+00 0.0000000000000000e+00  -7.2604097918374588e-01 1.1799702840022643e+00 0.0000000000000000e+00  2.4236219598213340e-02 6.3194740323128762e-01 0.0000000000000000e+00  3.8178279130137882e-01 1.7367965622261485e+00 0.0000000000000000e+00  -3.1779991636178902e-02 1.1505030152725317e+00 0.0000000000000000e+00  1.0050500891204963e-02 -1.1220885571622323e+00 0.0000000000000000e+00  9.8971932372108648e-02 -8.3055646975302611e-01 0.0000000000000000e+00  -9.5427713767113023e-02 -1.4071674561120988e+00 0.0000000000000000e+00  -5.0784985157936724e-02 -1.6544677562311390e+00 0.0000000000000000e+00  -1.3205560426277711e-02 -7.9256033846841423e-01 0.0000000000000000e+00  9.4784515903745328e-02 -1.2774461583184091e+00 0.0000000000000000e+00  1.4613477047973716e-01 -1.6328795844772512e-01 0.0000000000000000e+00  3.0760623160547392e-02 -1.1435362713756561e+00 0.0000000000000000e+00  -1.3405302101278802e-01 1.4786847052332683e+00 0.0000000000000000e+00  -3.1653375511322676e-02 1.4061970618241719e+00 0.0000000000000000e+00  4.3467427636279483e-02 -1.1198654319104611e+00 0.0000000000000000e+00  1.3814538616767211e-02 -6.6246407136012375e-01 0.0000000000000000e+00  2.7071991248479393e-02 -1.1915790647705413e+00 0.0000000000000000e+00  -6.8832457174930334e-02 1.3405617214363783e+00 0.0000000000000000e+00  2.8497130806087023e-01 -1.7375840081087279e-01 0.0000000000000000e+00  -3.3973212184401927e-02 -5.1099491096312866e-01 0.0000000000000000e+00  2.2924947304861820e-01 -6.5700611876737991e-01 0.0000000000000000e+00  -1.8747632373526016e-01 1.5247110215000306e+00 0.0000000000000000e+00  -2.6872644564024422e-02 -1.3293476526674137e+00 0.0000000000000000e+00  -7.9479443555549145e-01 2.1082174335608546e+00 0.0000000000000000e+00  8.8507905348381710e-02 1.4444303455908474e+00 0.0000000000000000e+00  6.3827273122386949e-04 -6.3472178040620850e-04 0.0000000000000000e+00  8.1521162021606031e-02 -1.1954005076207339e+00 0.0000000000000000e+00  -5.9504188249091111e-04 -1.7137190942009459e+00 0.0000000000000000e+00  4.2190910842838836e-01 -1.1844141247503017e+00 0.0000000000000000e+00  1.7395352395444219e-01 -2.4701180903106809e-01 0.0000000000000000e+00  -7.8116336435960811e-04 -6.2464188664362928e-04 0.0000000000000000e+00  -2.0075729310374901e-01 -1.1021845524172980e+00 0.0000000000000000e+00  5.1491837596589021e-04 4.3449235865978777e-04 0.0000000000000000e+00  2.4620601344953341e-01 4.0109827390953351e-01 0.0000000000000000e+00  1.7539936268737859e-03 -6.2383137970917544e-05 0.0000000000000000e+00  -4.7406420384767215e-04 -8.3471611039794187e-04 0.0000000000000000e+00  -9.9305325612341067e-02 -1.1898880152082333e-01 0.0000000000000000e+00  9.7456302711766973e-03 -1.3421455498174070e-02 0.0000000000000000e+00  -9.2134828751452486e-02 1.3868536901788686e+00 0.0000000000000000e+00  -6.5998913366037651e-02 -1.0674912921396156e+00 0.0000000000000000e+00  5.4742428264625146e-03 -6.9729769583527557e-01 0.0000000000000000e+00  -8.1536336004144894e-02 1.6417175727026723e+00 0.0000000000000000e+00  5.3066315893009211e-02 1.6340565081707739e+00 0.0000000000000000e+00  1.2906577558916329e-02 3.6039175154961217e-01 0.0000000000000000e+00  1.3165548767251163e-02 1.7393119303656428e+00 0.0000000000000000e+00  1.3951994030851246e-02 -1.2333924358877721e-01 0.0000000000000000e+00  1.9189971558595788e-02 -1.4183172269478435e+00 0.0000000000000000e+00  2.0888119986781545e-01 1.5666000797122972e+00 0.0000000000000000e+00  7.6617553694317408e-01 -3.3099133220250065e-01 0.0000000000000000e+00  2.5990735162560968e-01 -4.0549540805033196e-01 0.0000000000000000e+00  1.2860379483759028e-02 -9.7843979292048666e-01 0.0000000000000000e+00  -1.0014045731049418e-02 1.6854408726528776e+00 0.0000000000000000e+00  6.7261477402747122e-03 1.1321901474713068e+00 0.0000000000000000e+00  -1.4468500067331152e-02 -1.0237253494985059e+00 0.0000000000000000e+00  1.9764393480685252e-01 1.3901434540724622e+00 0.