<?xml version="1.0"?>
<VTKFile type="UnstructuredGrid"  version="0.1"  >
<UnstructuredGrid>
<Piece  NumberOfPoints="4835" NumberOfCells="9296">
<Points>
<DataArray  type="Float64"  NumberOfComponents="3"  format="ascii">0 1.5 0  -0 0.1307014797437256 0  0.01134725726173103 0.1483581566929452 0  0.04283342385313163 0.181379897845022 0  0.08000000000000007 0.2078460969082653 0  0.1215036888038188 0.2268001964915204 0  0.1658444388144116 0.2375571460514239 0  0.2114196597976982 0.2397281614039219 0  0.2565821445222626 0.23323477639765 0  0.2996996031204527 0.2183116788850844 0  0.3392136582970876 0.1954982284920806 0  0.3736961691452169 0.1656189627557069 0  0.4019008478794835 0.1297537961893434 0  0.4059948616314525 0.1218125174167552 0  0.4254856317806581 0.1498156710261111 0  0.4592156240140376 0.1818784194956707 0  0.498709345141744 0.2064950441012706 0  0.5423499175804942 0.222657737339227 0  0.588350691167096 0.2297047966493422 0  0.6348283888260526 0.2273477145954656 0  0.6798802081543086 0.2156829903938285 0  0.7216617223752013 0.1951881792237927 0  0.7584623913874079 0.1667023410626976 0  0.7879811633353602 0.1323170874919288 0  0.8152477706948351 0.1684239109116393 0  0.849341340905186 0.1995043068200599 0  0.8885654110558655 0.2237908228387656 0  0.9315842524819793 0.2404564107932048 0  0.9769329101341745 0.2489335440737586 0  1.023067089865825 0.2489335440737586 0  1.068415747518021 0.2404564107932048 0  1.111434588944135 0.2237908228387656 0  1.150658659094814 0.1995043068200599 0  1.184752229305165 0.1684239109116393 0  1.212554283932403 0.1316080407193389 0  1.233118057351089 0.09031041654678823 0  1.245743274920975 0.04593737945414259 0  1.25 0 0  1.36108673858246 0 0  1.36108673858246 0.02281345039300389 0  1.369721686332521 0.06761581364194322 0  1.386679492322819 0.1099743652145785 0  1.411347257261731 0.1483581566929452 0  1.442833423853132 0.181379897845022 0  1.48 0.2078460969082653 0  1.521503688803819 0.2268001964915204 0  1.565844438814412 0.2375571460514239 0  1.611419659797698 0.2397281614039219 0  1.656582144522263 0.23323477639765 0  1.699699603120453 0.2183116788850844 0  1.739213658297088 0.1954982284920806 0  1.765497292517293 0.1727233297951148 0  1.79 0.1905255888325765 0  1.832016261237511 0.2092324335849338 0  1.877003738081116 0.2187948169810202 0  1.922996261918884 0.2187948169810201 0  1.967983738762488 0.2092324335849338 0  2.01 0.1905255888325765 0  2.047208733398949 0.1634918616050267 0  2.077983738762488 0.1293127555043441 0  2.087980221556173 0.1119983394086949 0  2.111347257261731 0.1483581566929452 0  2.142833423853131 0.181379897845022 0  2.18 0.2078460969082653 0  2.221503688803819 0.2268001964915204 0  2.265844438814411 0.2375571460514239 0  2.311419659797698 0.2397281614039219 0  2.356582144522263 0.23323477639765 0  2.399699603120453 0.2183116788850844 0  2.439213658297088 0.1954982284920806 0  2.457172785224357 0.179936556425434 0  2.459215624014038 0.1818784194956707 0  2.498709345141744 0.2064950441012706 0  2.542349917580494 0.222657737339227 0  2.588350691167096 0.2297047966493422 0  2.634828388826053 0.2273477145954656 0  2.679880208154309 0.2156829903938285 0  2.721661722375202 0.1951881792237927 0  2.758462391387408 0.1667023410626976 0  2.788775591477674 0.1313916894718022 0  2.811360296672653 0.09070184667606328 0  2.825291886488074 0.04629865962039181 0  2.83 0 0  3 0 0  3 1.5 0  0 0.8023345134541607 0  0.4157402467060553 0.1358140942214332 0  3 0.75 0  1.5 1.5 0  0 0.4665179965989431 0  3 0.375 0  0 0.2986097381713344 0  0 0.21465560895753 0  0 0.1726785443506278 0  0 0.1516900120471767 0  2.25 1.5 0  0.75 1.5 0  1.169989811679434 0.9093651732355621 0  1.875 0.9142758100523694 0  0.5779365036100435 0.9330077223331824 0  2.43246936225428 0.7976868957014953 0  3 1.125 0  2.625 1.5 0  0.375 1.5 0  0 1.15116725672708 0  1.449253057879235 0.6213873587688492 0  0.7697361971202799 0.5943793911944208 0  0.3630076616442724 0.6080350564914153 0  2.069570984533324 0.5812833454367354 0  1.875 1.5 0  1.125 1.5 0  2.4375 1.173854331507092 0  0.8831005780031504 1.150004411874495 0  1.52207987625039 0.9714054497350916 0  2.0625 1.207137905026185 0  1.107793318688589 0.5766433232347881 0  1.3125 1.2274095306559 0  2.729985961523573 0.9375 0  2.711750443384031 0.5625 0  1.6875 1.243073622519403 0  1.760894209596057 0.6242614373612321 0  0.2643049832376852 0.9767508850906206 0  0.4566194854768236 1.209399638766609 0  2.728217267602858 1.228217267602858 0  2.374499195658668 0.518153287180279 0  2.169650674143702 0.9320836008992801 0  0.8550719231757007 0.8663457099410541 0  1.303567858855371 0.4078893824383345 0  0.2133194436665546 1.297827371069245 0  0.5308017499037517 0.4517023193912283 0  1.083077097725883 1.270382833575872 0  0.6830238102386342 1.274223132985906 0  2.250983943328481 0.6895458766515071 0  1.81089184968521 0.4192208869708923 0  1.679274712803154 0.8238291020339636 0  1.5785148524717 0.4510287526682343 0  0 0.6344262550265519 0  0.2138866804674432 0.765685327335986 0  0.5683532856219899 0.6602211278972628 0  0.9375 1.5 0  0.93201471049342 0.4568525359126817 0  1.262687644113192 0.7198627504483751 0  0.4154000952342595 0.8069446327163143 0  0.2139559556345817 0.4540330649264536 0  2.06977986811652 0.3813318272583126 0  0.7200651071201811 0.4061566188086219 0  1.932157822851692 0.7243325602448901 0  0.9441947922338874 0.689010158618046 0  3 1.3125 0  2.8125 1.5 0  0.5625 1.5 0  1.865575888969794 1.126762336039809 0  1.691368628814911 1.054521333692312 0  2.243682835689564 1.11932177110543 0  2.294933652681559 1.30886281903233 0  2.4375 1.5 0  2.385653526545621 0.9864303388879195 0  2.560603055863368 1.320052196970997 0  2.605098352881707 1.08210421072607 0  2.797310903081369 0.7462827406561878 0  1.497248537655819 1.30111187331848 0  1.6875 1.5 0  3 0.5625 0  3 0.9375 0  1.3125 1.5 0  2.0625 1.5 0  3 0.1875 0  0.1875 1.5 0  0.9978323986844071 0.9954535003819682 0  0.7455388243606953 1.020382929522352 0  1.904625246064701 1.312514164033404 0  1.15622562020362 1.097022204090454 0  1.332774827327096 1.015638362851981 0  2.617489052932561 0.7904306825848915 0  2.798834931624827 0.3810601956207291 0  2.518702939674024 0.6340258449062608 0  1.42862153170688 0.8082655083169574 0  2.016051725629557 1.02698392558818 0  2.557580898838836 0.4303899543284488 0  0.9143579924460792 1.324371521638632 0  0.6907201107072946 0.792483910827579 0  0 1.32558362836354 0  0 0.9767508850906206 0  0.6046140448732628 1.120294499938289 0  1.129353874055204 0.4037183319394277 0  2.240578803971554 0.4086758810341738 0  1.544887400155686 1.138911442832316 0  2.828734594747712 1.083464790593587 0  0.401358428169992 0.3487630281226344 0  0.1737226743516005 1.126953194380642 0  1.219293394173851 1.36370476532795 0  2.095593203128485 0.7438044944874065 0  1.099947866649755 0.7404984974094087 0  0.4225987016856009 0.9654760294046846 0  1.265404984472296 0.5615537191035901 0  1.908099381276504 0.55154028811489 0  1.605233217264331 0.6055204891939014 0  0.2070403235706232 0.6098576665994301 0  0.46875 1.369568887475175 0  2.529999076220762 0.9220559311443081 0  0.3296306516835505 1.118561581461605 0  2.136891098712708 1.353568952513092 0  0.1250262355603041 0.8895426992723907 0  2.286468869522623 0.8363516131379349 0  2.03024950667879 0.8782110935537075 0  2.71875 1.380113023166798 0  2.851157149000174 1.312122703709591 0  2.855875221692015 0.6072101925796368 0  1.766081959310164 1.371536811259701 0  2.417227117459742 0.3724437385102629 0  1.365276810157265 1.363519047380362 0  1.451310499971155 0.3640091006357036 0  2.211012611580202 0.5503989260541815 0  1.306789156675977 0.2570819477057019 0  2.872418607762505 0.256220469598872 0  2.896902016958361 0.84375 0  0.6487095286926469 0.5256523827174592 0  1.021477811485347 1.13286821063065 0  1.622350554793597 1.371881362989231 0  1.297557547403682 0.854343314165958 0  0.5529398034156436 0.7974238691464364 0  1.000783388185185 0.848708117631217 0  0.8152141294141361 0.735251676415229 0  2.383386472338196 0.654760318649699 0  1.031024064601143 1.39833771698851 0  1.812756223744312 0.7919737740986065 0  2.902150447032281 0.46875 0  1.558478314279628 0.7430881247578319 0  2.428095049619715 1.306700780290589 0  0.3309906154406318 1.369459454266083 0  0.117457385934373 0.361895434578648 0  0.4016309285334721 0.4812757168525422 0  1.933925005895449 0.3564723397117748 0  0.7479761182598068 1.155601287121883 0  0.09711831342126455 1.23837544254531 0  1.384025258268523 0.5094422387329146 0  2.188092881729461 1.235445092789212 0  0.116614462422195 1.388212202394539 0  0.5993432477835932 1.374610260003488 0  0.8731519049868882 1.022757560732678 0  0.1109021857268646 0.5275252102504697 0  1.703820060431276 0.5017282682884084 0  0.1118224159219883 0.6921053365242938 0  0.3267069786561488 1.244030051070764 0  2.878127312164905 0.9679608000003684 0  1.408346090782441 1.129729637108486 0  0.8047358880839842 0.3153623688883521 0  2.6405066654848 0.6664933064830099 0  0.4805702216488833 1.081724858267193 0  2.668084598222495 0.3562155878484895 0  2.138121375887776 1.052804865904559 0  1.96875 1.5 0  0.4891907154726056 0.5668366043293971 0  0.1473863332166031 1.0086557402922 0  2.558860649578938 1.196592162044302 0  1.717555244640741 0.3396535732296396 0  0.84375 1.5 0  0.7839942032523698 1.367093097528149 0  3 1.40625 0  2.484124862262918 1.060073596740424 0  3 1.21875 0  2.34375 1.5 0  0.8196209764267471 1.251369088398821 0  2.023202270335131 1.319214170177879 0  0.5721208504581607 1.233781127425821 0  1.984735816620384 0.462442873488178 0  0.6955333931194808 0.9118686683832042 0  1.19123464962554 1.213906677421382 0  0.8929803638185398 0.5752987850534633 0  1.566736823664244 0.8614646887466211 0  1.808684073906441 1.017786844668201 0  1.719105195888173 0.9374041347540488 0  1.671476674178274 0.70476362875428 0  1.218260709491531 0.330629071498573 0  2.839021519587611 1.19788439058923 0  0.5170070740021471 0.3361933937254621 0  1.393527188254162 0.91788143976
[...]
<PointData  Vectors="f_60"> 
<DataArray  type="Float64"  Name="f_60"  NumberOfComponents="3" format="ascii">-3.1352350995283708e-05 -3.6797841977264018e-04 0.0000000000000000e+00  -1.2867425385413675e-04 1.1207143686611798e-05 0.0000000000000000e+00  7.9606287193821035e-05 3.2600267419392761e-05 0.0000000000000000e+00  3.2605158209371709e-04 2.3099922780714629e-04 0.0000000000000000e+00  1.3947916770109628e-04 5.3556905190139167e-04 0.0000000000000000e+00  -4.5081014239386851e-04 6.3042127679137339e-04 0.0000000000000000e+00  3.3464945873361717e-06 8.3833099416116396e-04 0.0000000000000000e+00  6.6713158177414324e-04 7.7268515246531983e-04 0.0000000000000000e+00  -5.6374714105931719e-04 5.2180432033919317e-04 0.0000000000000000e+00  6.4861985220271109e-04 3.6771244300116268e-04 0.0000000000000000e+00  4.6607048605685987e-05 7.5567820056694486e-04 0.0000000000000000e+00  -4.3020399744946291e-04 1.0033576886378107e-03 0.0000000000000000e+00  1.5197300398461214e-04 9.5193759702593851e-05 0.0000000000000000e+00  1.7014440027110056e-04 1.3383556501122068e-04 0.0000000000000000e+00  8.8507512326426859e-05 4.0736250807910297e-04 0.0000000000000000e+00  -1.6593675409922162e-04 3.7874403546749789e-04 0.0000000000000000e+00  4.0921545948511200e-04 9.2697517671557579e-04 0.0000000000000000e+00  4.1133257099989161e-04 8.0483708063392606e-04 0.0000000000000000e+00  -3.5171014208929436e-04 4.3728884313578984e-04 0.0000000000000000e+00  6.0083909207263721e-04 3.0240477592847462e-04 0.0000000000000000e+00  -4.3965259811637220e-04 8.4036869810349632e-04 0.0000000000000000e+00  -7.7738361151740560e-05 7.1088095860835122e-04 0.0000000000000000e+00  -1.0039891148893871e-04 4.8843899966406377e-04 0.0000000000000000e+00  -2.0939530113726191e-04 1.1767395953635679e-04 0.0000000000000000e+00  3.2542944272877743e-04 7.4476447892073713e-04 0.0000000000000000e+00  5.6700415748235113e-04 9.1080960243705147e-04 0.0000000000000000e+00  -5.8572120541334430e-04 2.8425379525649189e-04 0.0000000000000000e+00  -2.0466479466788495e-04 2.6085050683178436e-04 0.0000000000000000e+00  -2.3807708757435166e-04 8.2728766461303269e-04 0.0000000000000000e+00  -2.1559803134668000e-04 7.3348751386259105e-04 0.0000000000000000e+00  5.1621224021304872e-04 6.3902034431392786e-04 0.0000000000000000e+00  -4.7423209418384128e-04 7.7581160383467893e-04 0.0000000000000000e+00  3.2749991717294933e-04 1.3041401050663295e-04 0.0000000000000000e+00  4.7372568464301181e-04 -2.5737261149065923e-04 0.0000000000000000e+00  -1.3406911681255700e-04 2.6982932086812159e-04 0.0000000000000000e+00  -5.4142660227604437e-04 7.7002916082247663e-04 0.0000000000000000e+00  1.0306757109639518e-04 9.3791887869351578e-04 0.0000000000000000e+00  3.4901711020013284e-04 6.9043407859040737e-04 0.0000000000000000e+00  1.8411182240631204e-04 2.7379270924903648e-04 0.0000000000000000e+00  1.5735173170643071e-04 3.9897427946339282e-04 0.0000000000000000e+00  6.9897039189323754e-05 5.4340659019756787e-04 0.0000000000000000e+00  -2.1547913329337455e-04 2.7344784403336497e-04 0.0000000000000000e+00  9.1063357743222739e-06 6.4345665554381892e-04 0.0000000000000000e+00  3.9415352562068929e-04 9.0937981272656962e-04 0.0000000000000000e+00  -3.7392717042546603e-04 3.8927128587185137e-04 0.0000000000000000e+00  -1.7422836250675642e-04 3.7030109355838648e-04 0.0000000000000000e+00  2.6402910541859095e-04 5.2395658859547293e-04 0.0000000000000000e+00  -7.2615242693959889e-04 8.7047250550423923e-04 0.0000000000000000e+00  6.8248304358170715e-04 6.9565690342253579e-04 0.0000000000000000e+00  2.8583034446014226e-04 6.1903278840974368e-04 0.0000000000000000e+00  -6.2140863261671395e-04 3.2820447544146649e-04 0.0000000000000000e+00  -3.2418787349909714e-04 3.3868014982589361e-04 0.0000000000000000e+00  -1.0366751167083886e-04 3.2543464057074146e-04 0.0000000000000000e+00  3.1679921379439933e-04 6.1909236920172953e-04 0.0000000000000000e+00  1.8597672031659199e-04 6.5472054087039157e-04 0.0000000000000000e+00  -5.2426468819252390e-05 8.1435678978443514e-04 0.0000000000000000e+00  5.9101259355297047e-04 5.4411380001275367e-04 0.0000000000000000e+00  -1.9796591309066073e-04 3.0625218168730346e-04 0.0000000000000000e+00  -4.4949849554228440e-04 2.9352622012256027e-04 0.0000000000000000e+00  -2.0580228690012038e-04 1.0752221594528659e-04 0.0000000000000000e+00  -7.5965512985282881e-06 5.2414113505560084e-05 0.0000000000000000e+00  -1.3274346830776708e-04 8.1998349141433331e-05 0.0000000000000000e+00  6.1771147205656404e-04 5.5615893497199887e-04 0.0000000000000000e+00  5.7398341712286145e-04 7.5824680216011716e-04 0.0000000000000000e+00  -4.9151579547135631e-04 5.0446193104657598e-04 0.0000000000000000e+00  3.5174463538488113e-04 7.6452005219101353e-04 0.0000000000000000e+00  2.9301079464892166e-04 7.0429773694195038e-04 0.0000000000000000e+00  -6.6530411937855533e-05 3.0356485746314588e-04 0.0000000000000000e+00  3.3532347757619962e-04 3.5890144190285281e-04 0.0000000000000000e+00  5.1561182590588613e-04 1.3685365581135945e-03 0.0000000000000000e+00  -1.2412877638955044e-03 6.8761650692510427e-04 0.0000000000000000e+00  1.2979982926326571e-03 5.2926442526097823e-04 0.0000000000000000e+00  4.1100406908524645e-04 9.6563700205016341e-04 0.0000000000000000e+00  6.5677589441736500e-04 6.1549497710340151e-04 0.0000000000000000e+00  6.2883952994956043e-04 4.1259354915206188e-04 0.0000000000000000e+00  3.7151619808584163e-04 -3.3642545238363837e-04 0.0000000000000000e+00  1.6277126675271459e-03 -9.1594460752526862e-04 0.0000000000000000e+00  -5.0088558664046913e-04 -3.5421678108091742e-04 0.0000000000000000e+00  -7.2080081139445657e-04 -1.2241749021032905e-05 0.0000000000000000e+00  4.6122692392864027e-04 -1.8753365789893605e-04 0.0000000000000000e+00  2.4202034699516764e-04 -3.0442339329632034e-06 0.0000000000000000e+00  5.1591411877290332e-05 1.2911252971394317e-04 0.0000000000000000e+00  -7.2477457910027730e-05 4.4266399338463250e-05 0.0000000000000000e+00  -1.2306455261479555e-03 1.4324247156120152e-03 0.0000000000000000e+00  -1.6692371594316533e-03 1.0666107766867567e-03 0.0000000000000000e+00  -3.5291029108249792e-06 -5.2748882316013090e-06 0.0000000000000000e+00  1.7554902582309276e-04 2.3815508736855151e-04 0.0000000000000000e+00  2.4352666508468775e-04 -2.3319595887340343e-04 0.0000000000000000e+00  2.4089081355384837e-04 -5.7510590390642325e-04 0.0000000000000000e+00  -6.1246023573506295e-07 6.0960206516737135e-05 0.0000000000000000e+00  -3.4838488668788529e-03 3.2886598532132216e-04 0.0000000000000000e+00  2.7069513523178616e-04 8.0993236339302853e-04 0.0000000000000000e+00  2.2148317600561966e-04 5.8877284966536367e-04 0.0000000000000000e+00  2.0537084864115496e-04 1.9325254945477179e-04 0.0000000000000000e+00  1.3280927440666479e-05 9.5410292270139456e-05 0.0000000000000000e+00  -1.8528204373052069e-04 -3.8128679199711768e-04 0.0000000000000000e+00  1.6561910015079565e-06 -2.3087270054461407e-04 0.0000000000000000e+00  1.9734774676771730e-03 1.1196616875817178e+00 0.0000000000000000e+00  1.4090304262417865e-02 1.2701786118539588e-01 0.0000000000000000e+00  -3.5624291780970083e-03 1.2075793072943235e+00 0.0000000000000000e+00  -4.6323609371569617e-03 1.5141183817006101e+00 0.0000000000000000e+00  1.6173512496111464e-03 -1.3094930247107867e-04 0.0000000000000000e+00  -3.5946046326796504e-04 -6.4974924467646933e-04 0.0000000000000000e+00  2.7351720358995469e-05 -4.8843857645391466e-04 0.0000000000000000e+00  -1.3499529600194888e-05 4.2329641369967938e-06 0.0000000000000000e+00  4.2380197317148385e-02 6.6354309283869917e-01 0.0000000000000000e+00  4.5296468016177205e-02 -1.2680519945619075e+00 0.0000000000000000e+00  5.1931286700309623e-02 3.4347233638379332e-01 0.0000000000000000e+00  -5.0696900490059815e-02 1.2683839492829228e+00 0.0000000000000000e+00  3.6441710220288124e-05 -6.4694565700891874e-04 0.0000000000000000e+00  -2.7794646852825845e-04 -8.5228188549163193e-04 0.0000000000000000e+00  2.6417508477843687e-01 1.3884478872273511e+00 0.0000000000000000e+00  -5.3619863861634934e-02 1.2897882560433092e+00 0.0000000000000000e+00  -2.6801597063322463e-03 1.2692145562596533e+00 0.0000000000000000e+00  6.4594769949653616e-02 1.0624675579097671e+00 0.0000000000000000e+00  5.8673331787502364e-02 -4.8715970639003742e-01 0.0000000000000000e+00  -4.9438293308421082e-02 -9.6570983010213529e-01 0.0000000000000000e+00  2.1606041737610204e-01 2.0017722558724191e+00 0.0000000000000000e+00  -3.3641077135088021e-01 2.0350776682842815e+00 0.0000000000000000e+00  -2.8121022026006720e-02 -9.1409125595679430e-01 0.0000000000000000e+00  5.0716207307264453e-03 9.9949019143335927e-01 0.0000000000000000e+00  -5.7222993355785304e-03 9.6326771749844908e-01 0.0000000000000000e+00  -4.9449444123081311e-02 -1.3606923163991140e+00 0.0000000000000000e+00  6.4497519163346340e-01 1.9073259718179352e+00 0.0000000000000000e+00  -1.9085614981579199e-01 1.5140323562613054e+00 0.0000000000000000e+00  4.3077503219318553e-02 4.1763733355767446e-01 0.0000000000000000e+00  7.0059773337896401e-03 7.9996948863182704e-01 0.0000000000000000e+00  1.1430657110100929e-01 -7.1798127160914649e-01 0.0000000000000000e+00  -7.6570922554262691e-02 -3.1459910910079114e-01 0.0000000000000000e+00  8.9800249216544573e-02 8.9301254459659585e-02 0.0000000000000000e+00  -8.0281987620033982e-02 -1.0139922516096735e+00 0.0000000000000000e+00  -6.3380317667346461e-02 -2.6528033492705194e-01 0.0000000000000000e+00  -6.9535547789432217e-02 -1.0754744463577315e+00 0.0000000000000000e+00  -1.6110394707460229e-02 1.3566442188327261e+00 0.0000000000000000e+00  1.3584834380213278e-02 -1.0537803013224543e+00 0.0000000000000000e+00  7.3450189244249845e-03 -7.6264134278113960e-02 0.0000000000000000e+00  8.9510475733779470e-06 1.8870749953610857e-05 0.0000000000000000e+00  2.0841557661257885e-02 -3.6584334787255179e-01 0.0000000000000000e+00  4.2190241656467918e-02 1.0408775878798153e+00 0.0000000000000000e+00  7.0824805748670656e-04 -7.2750777793551176e-04 0.0000000000000000e+00  3.6114888865975622e-02 1.0941588868550276e+00 0.0000000000000000e+00  3.6719936766998910e-02 3.9228411416011078e-01 0.0000000000000000e+00  2.5420418207845862e-02 -1.0411639485051589e+00 0.0000000000000000e+00  8.5502623518890000e-02 -3.4247447276033427e-01 0.0000000000000000e+00  -8.0936661570114421e-02 1.1906624749107417e+00 0.0000000000000000e+00  3.3899136041259284e-02 -1.0970479838675753e+00 0.0000000000000000e+00  -8.8474556528482552e-03 -1.1401620173954001e+00 0.0000000000000000e+00  3.4394828888366286e-02 8.4355868247137900e-01 0.0000000000000000e+00  2.2795520292562869e-03 2.7820343527200879e-04 0.0000000000000000e+00  1.3618998727617816e-03 -7.6197538903264336e-04 0.0000000000000000e+00  -6.5752422946651159e-04 -8.1122517084264260e-04 0.0000000000000000e+00  1.5597692629863099e-02 3.6796898722719679e-01 0.0000000000000000e+00  1.5744396635999399e-03 -8.2428271577122625e-01 0.0000000000000000e+00  1.1810847940265300e-01 -1.1261276332513996e+00 0.0000000000000000e+00  1.6521075970073973e-01 -7.2853654643698407e-01 0.0000000000000000e+00  6.3244372768429976e-04 -8.3576268815060387e-04 0.0000000000000000e+00  1.3473877651666685e-01 1.6748122923633701e+00 0.0000000000000000e+00  4.4901195647428699e-01 -1.0893009113928036e+00 0.0000000000000000e+00  3.0651308069084904e-01 -1.3255780978213516e-01 0.0000000000000000e+00  -1.1191752846830137e-01 3.1881354978386461e-01 0.0000000000000000e+00  -6.5676721248420555e-02 1.3567316905624136e+00 0.0000000000000000e+00  7.6822805735873064e-04 -3.1182642349607801e-04 0.0000000000000000e+00  -7.5921295847530086e-04 -1.5127434053493019e-04 0.0000000000000000e+00  1.0176017824293580e-03 -7.6356959150855757e-05 0.0000000000000000e+00  -5.1507070532715851e-04 -4.8394550428937681e-04 0.0000000000000000e+00  -8.2348017600843029e-04 -5.9584100132703110e-04 0.0000000000000000e+00  -5.1443588690243368e-03 -5.9447726321313027e-04 0.0000000000000000e+00  5.6277497477342381e-04 -4.5611839144915270e-04 0.0000000000000000e+00  -1.1620429680893413e-02 -6.2581873769773022e-01 0.0000000000000000e+00  -1.4674777916588591e-02 -1.3666785843733813e+00 0.0000000000000000e+00  3.3408438368777160e-02 -7.1863661420672631e-01 0.0000000000000000e+00  -3.5832284896052419e-02 8.5589062172852115e-01 0.0000000000000000e+00  -8.0439728175372011e-03 -1.2552847963362452e+00 0.0000000000000000e+00  -1.9731371643320596e-02 4.7919292151301396e-01 0.0000000000000000e+00  -8.4731157252698963e-01 -6.8777978466505699e-02 0.0000000000000000e+00  -2.0933943577596237e-01 -6.0630680414336324e-01 0.0000000000000000e+00  2.1862070279961423e-02 1.2358455618242396e-01 0.0000000000000000e+00  4.2231105356102513e-02 -1.2659315666286527e-01 0.0000000000000000e+00  -4.7422931327868695e-01 -8.2884280859185822e-01 0.0000000000000000e+00  -7.6825580584844122e-02 1.2531950008131272e+00 0.0000000000000000e+00  2.3651802247569950e-02 -4.3807193496516228e-01 0.0000000000000000e+00  4.4550947375778011e-05 -1.9395318868268457e-04 0.0000000000000000e+00  5.9500002047102948e-06 1.6747288462013700e-05 0.0000000000000000e+00  -4.3137029025702670e-02 1.3478612175934248e+00 0.0000000000000000e+00  1.2936869186093827e-01 1.3259558101908489e-01 0.0000000000000000e+00  -1.7682391861982918e-01 -1.1410896437433189e+00 0.0000000000000000e+00  -2.5611748413555988e-02 8.3681360574123698e-01 0.0000000000000000e+00  4.3387187855958698e-01 -1.6820900794824512e-01 0.0000000000000000e+00  4.7569948226328672e-02 -6.6615759257235063e-01 0.0000000000000000e+00  -1.6240909139205912e-02 -1.2394775956989759e+00 0.0000000000000000e+00  -5.9605240328069270e-02 1.1530626972398583e+00 0.0000000000000000e+00  -8.4743832340341326e-03 1.5605652601530915e+00 0.0000000000000000e+00  3.4285606268059550e-02 -6.8584078856372865e-01 0.0000000000000000e+00  -3.7571014924018918e-04 -1.1729922215651656e+00 0.0000000000000000e+00  6.7531381627924908e-02 3.3079824047410678e-01 0.0000000000000000e+00  -3.0465959320575792e-02 -7.7727023552015295e-01 0.0000000000000000e+00  2.1257282900293269e-02 -7.5571035459936309e-01 0.0000000000000000e+00  4.0496871309404270e-02 -5.4592361776930387e-01 0.0000000000000000e+00  -1.3018035270371364e-01 -1.1653878176858332e+00 0.0000000000000000e+00  8.8745564267785598e-02 -6.7952528906415344e-01 0.0000000000000000e+00  -3.1161649292827526e-02 1.0743748040750285e+00 0.0000000000000000e+00  1.4505156983298878e-01 1.0377293418574491e+00 0.0000000000000000e+00  6.8421986568418421e-03 -1.2411510641574623e+00 0.0000000000000000e+00  8.8846165743762667e-03 -6.7169896350730651e-01 0.0000000000000000e+00  2.0865475387047683e-02 3.1189060283552922e-01 0.0000000000000000e+00  8.1884919356500152e-01 1.5427515677646497e+00 0.0000000000000000e+00  9.5160122892627275e-01 -5.6706844315101568e-01 0.0000000000000000e+00  -3.6914387167723156e-01 -2.4677457749650902e-01 0.0000000000000000e+00  -1.2105347240725549e-01 9.7454011178132427e-01 0.0000000000000000e+00  -3.3790916404375282e-01 1.3464161646642701e+00 0.0000000000000000e+00  -1.1454542718576527e-01 -1.2027233371554935e+00 0.0000000000000000e+00  7.7964825040127611e-02 5.9760743073407374e-01 0.0000000000000000e+00  -1.1733854349292233e-01 -7.4647483213947641e-01 0.0000000000000000e+00  6.4014374451258849e-02 -7.5408775827779884e-01 0.0000000000000000e+00  -1.0111763074383415e+00 3.2652036035812682e-01 0.0000000000000000e+00  5.2980839723526227e-02 3.7518133711001050e-01 0.0000000000000000e+00  5.2455649815522608e-02 7.1368600086603340e-01 0.0000000000000000e+00  -3.9014910614708624e-02 -1.1334365911534947e+00 0.0000000000000000e+00  -4.6240634233111755e-03 -1.0538542516291163e+00 0.0000000000000000e+00  1.7687382436092025e-02 -5.8588895354753323e-01 0.0000000000000000e+00  2.1878592171094960e-02 7.2520226926719455e-01 0.0000000000000000e+00  1.5829828545684810e-02 -6.8785191146933067e-01 0.0000000000000000e+00  2.9688084943284312e-02 -2.9518520545015303e-01 0.0000000000000000e+00  -9.9845053655605032e-02 1.6745031570708098e+00 0.0000000000000000e+00  -4.5001648259724185e-02 -1.1142627680189587e+00 0.0000000000000000e+00  8.9516815184403787e-03 1.4194385277038133e+00 0.0000000000000000e+00  -6.0438853769752632e-01 8.1775130796741136e-01 0.0000000000000000e+00  1.9950777764197791e-02 5.1923839730267307e-01 0.0000000000000000e+00  3.1655953247202662e-01 1.4038373568131399e+00 0.0000000000000000e+00  -2.5810315732249386e-02 9.6743347011608827e-01 0.0000000000000000e+00  9.3899777941487891e-03 -9.4000006795900304e-01 0.0000000000000000e+00  7.9592249739244100e-02 -7.0664930756723032e-01 0.0000000000000000e+00  -7.9487020705285155e-02 -1.1687402347875795e+00 0.0000000000000000e+00  -4.4013096957251328e-02 -1.3696108724669092e+00 0.0000000000000000e+00  -1.2289853256267668e-02 -6.5410045026712715e-01 0.0000000000000000e+00  7.3787884245757607e-02 -1.0506344922352513e+00 0.0000000000000000e+00  1.2300390503898255e-01 -1.6005168499162511e-01 0.0000000000000000e+00  3.0623733902404422e-02 -9.4204294736142857e-01 0.0000000000000000e+00  -1.1151908118587724e-01 1.2335725706982250e+00 0.0000000000000000e+00  -2.3922794379585464e-02 1.1609987156447623e+00 0.0000000000000000e+00  3.3264478122970044e-02 -9.3348213779235556e-01 0.0000000000000000e+00  1.0954338619016178e-02 -5.4571328258306462e-01 0.0000000000000000e+00  2.0840939366849529e-02 -9.9041562612902001e-01 0.0000000000000000e+00  -5.3961086633884950e-02 1.1167988866747169e+00 0.0000000000000000e+00  2.5451742645445463e-01 -1.1222722309893267e-01 0.0000000000000000e+00  -2.9010420406909491e-02 -4.2996079939579940e-01 0.0000000000000000e+00  1.8341160988542890e-01 -5.3150284936468450e-01 0.0000000000000000e+00  -1.6697302976749165e-01 1.2232100687212704e+00 0.0000000000000000e+00  -2.3576491098602971e-02 -1.1056181507446183e+00 0.0000000000000000e+00  -6.6391195477035947e-01 1.7149997011478715e+00 0.0000000000000000e+00  7.2801545676279222e-02 1.1837240826100217e+00 0.0000000000000000e+00  5.3296003822755292e-04 -5.6608510625543167e-04 0.0000000000000000e+00  6.4910133892507604e-02 -9.7980933852291208e-01 0.0000000000000000e+00  -1.6620209809890770e-03 -1.4199203516551555e+00 0.0000000000000000e+00  3.5957412934377925e-01 -9.6755838152357576e-01 0.0000000000000000e+00  1.4112965251171622e-01 -1.9577969597474015e-01 0.0000000000000000e+00  -7.4428480449983579e-04 -5.8577484563091746e-04 0.0000000000000000e+00  -1.6483336334311074e-01 -9.2860707254694796e-01 0.0000000000000000e+00  8.8032950527546644e-04 3.1765234099127837e-04 0.0000000000000000e+00  2.0762732034855674e-01 2.8717255580286760e-01 0.0000000000000000e+00  1.7754282593462308e-03 -8.5310422524055330e-05 0.0000000000000000e+00  -5.3847184220922207e-04 -7.5228446436114403e-04 0.0000000000000000e+00  -8.1381714361667537e-02 -1.1770345527725126e-01 0.0000000000000000e+00  9.3685445107859859e-03 -2.7206826130667773e-03 0.0000000000000000e+00  -7.2859812020912212e-02 1.1398096674589988e+00 0.0000000000000000e+00  -5.4951871698513399e-02 -8.9476185943457553e-01 0.0000000000000000e+00  3.8618198793730716e-03 -5.7759243502021396e-01 0.0000000000000000e+00  -6.4505307738183457e-02 1.3562870778322538e+00 0.0000000000000000e+00  4.3527431248692426e-02 1.3540165572483425e+00 0.0000000000000000e+00  1.0898205794093504e-02 2.9590759348427886e-01 0.0000000000000000e+00  1.1385508328636908e-02 1.4387698851761759e+00 0.0000000000000000e+00  1.0770348752044644e-02 -9.9629915775598835e-02 0.0000000000000000e+00  1.4847460416184488e-02 -1.1726484049647854e+00 0.0000000000000000e+00  1.6675074592098782e-01 1.2768604772230203e+00 0.0000000000000000e+00  6.5698046048922953e-01 -3.4683830685886186e-01 0.0000000000000000e+00  2.1157964342494631e-01 -3.1268241559968157e-01 0.0000000000000000e+00  8.9337037158262796e-03 -8.0904999754308915e-01 0.0000000000000000e+00  -6.3258510654422943e-03 1.3943829210076240e+00 0.0000000000000000e+00  6.7027933541025549e-03 9.3483911672216280e-01 0.0000000000000000e+00  -9.4905888861749072e-03 -8.5684972345126775e-01 0.0000000000000000e+00  1.5529044852525375e-01 1.1562067688203548e+00 0.000