<?xml version="1.0"?>
<VTKFile type="UnstructuredGrid"  version="0.1"  >
<UnstructuredGrid>
<Piece  NumberOfPoints="4978" NumberOfCells="9630">
<Points>
<DataArray  type="Float64"  NumberOfComponents="3"  format="ascii">0 1.5 0  0 0 0  0.06190941752361886 0 0  0.06190941752361886 0.02304324263930277 0  0.07687367483109155 0.06663263502519032 0  0.1051805799723963 0.1030013474942385 0  0.1437626405485843 0.128208265731708 0  0.1884388916338735 0.1395218290209338 0  0.2343679681997119 0.1357160372315063 0  0.2765727421371398 0.117203306956754 0  0.3104796713154951 0.0859897797765535 0  0.3324144138380889 0.04545792568865569 0  0.34 0 0  0.4722134970410927 0 0  0.4722134970410927 0.02388743731615415 0  0.4894717723551502 0.0684361811740563 0  0.5216574972706967 0.1037422395464312 0  0.5644238112906292 0.1250373336124665 0  0.6119948867302293 0.1294454429183545 0  0.6579459862509499 0.1163712278761581 0  0.6960711592386857 0.08758043367405244 0  0.7212213898225662 0.04696141660432988 0  0.73 0 0  0.85 0 0  0.857341522555727 0.04635254915624212 0  0.8786474508437579 0.08816778784387098 0  0.9118322121561291 0.1213525491562421 0  0.9536474508437579 0.142658477444273 0  1 0.15 0  1.046352549156242 0.142658477444273 0  1.088167787843871 0.1213525491562421 0  1.121352549156242 0.08816778784387097 0  1.142658477444273 0.04635254915624211 0  1.15 0 0  1.461909417523619 0 0  1.461909417523619 0.02304324263930277 0  1.476873674831092 0.06663263502519032 0  1.505180579972396 0.1030013474942385 0  1.543762640548584 0.128208265731708 0  1.588438891633874 0.1395218290209338 0  1.634367968199712 0.1357160372315063 0  1.67657274213714 0.117203306956754 0  1.710479671315495 0.0859897797765535 0  1.732414413838089 0.04545792568865569 0  1.74 0 0  1.78 0 0  1.789134456098646 0.04592201188381079 0  1.815147186257614 0.08485281374238571 0  1.854077988116189 0.1108655439013544 0  1.9 0.12 0  1.945922011883811 0.1108655439013544 0  1.984852813742386 0.08485281374238569 0  2.010865543901355 0.04592201188381077 0  2.02 0 0  2.161909417523619 0 0  2.161909417523619 0.02304324263930277 0  2.176873674831092 0.06663263502519032 0  2.205180579972396 0.1030013474942385 0  2.243762640548584 0.128208265731708 0  2.288438891633873 0.1395218290209338 0  2.334367968199712 0.1357160372315063 0  2.37657274213714 0.117203306956754 0  2.410479671315495 0.0859897797765535 0  2.432414413838089 0.04545792568865569 0  2.44 0 0  2.472213497041093 0 0  2.472213497041093 0.02388743731615415 0  2.48947177235515 0.0684361811740563 0  2.521657497270697 0.1037422395464312 0  2.564423811290629 0.1250373336124665 0  2.611994886730229 0.1294454429183545 0  2.65794598625095 0.1163712278761581 0  2.696071159238686 0.08758043367405244 0  2.721221389822567 0.04696141660432988 0  2.73 0 0  3 0 0  3 1.5 0  0 0.75 0  3 0.75 0  1.5 1.5 0  0 0.375 0  0 0.1875 0  0 0.09375 0  0.75 1.5 0  2.25 1.5 0  1.137279452465634 0.8667483509386543 0  2.055384907633385 0.8149748422668953 0  0.5545701656450307 0.9454298343549693 0  2.545804583542266 1.045804583542266 0  2.462951104370831 0.5854482317237805 0  1.6063536999151 1.018574336065804 0  0.7683179692414909 0.5511078775270282 0  1.647896012796697 0.5780189144999826 0  1.875 1.5 0  0.3683226130580748 0.5893782185394094 0  0.375 1.5 0  0 1.125 0  3 0.375 0  1.125 1.5 0  3 1.125 0  2.625 1.5 0  1.247216233241016 0.4851891764902285 0  0.8779404074027722 1.143194262378568 0  1.992337703792022 0.4642129848858538 0  2.200035536160075 1.144037289792772 0  1.3125 1.206118267007311 0  1.882280687299076 1.18026905614258 0  0.8375010042452264 0.8437030129736524 0  0.2703628106324028 0.8673582108832857 0  0.336944444033578 1.181320038574892 0  1.424720841531434 0.7792108746582741 0  2.763716218670896 0.5625 0  0.6112325230261646 1.216037756380734 0  2.429292395855053 1.293345775631689 0  2.798691155259055 0.9375 0  2.340750225085827 0.8450755885956063 0  2.74506315455788 1.24506315455788 0  0.4115012634770826 0.3359864655288552 0  1.6875 1.5 0  1.553212834656815 1.259295117559057 0  1.783849920010049 0.8130750647527071 0  2.590242300399914 0.800172794523538 0  2.206538789959823 0.6067588023913982 0  1.022769083327432 0.627137676743421 0  2.0625 1.5 0  2.566013274303806 0.3667751817948443 0  2.317230353528816 0.3853650267397287 0  0.9546600707351991 0.3912757388497677 0  1.76490060939521 0.3540000691256479 0  1.398169292756645 0.3089248951275104 0  0.1875 1.5 0  0.6961815191548208 0.3380429757712475 0  0.6390751493076395 0.7361434669345621 0  1.385952842918209 0.9972233609662619 0  1.082019261833385 1.265823315390121 0  2.784258672215756 0.3048233224522298 0  0 0.5625 0  0.2130557952202133 0.4325455696870932 0  2.110276358430479 0.2903936515686117 0  0 1.3125 0  0.5618175915722093 0.5022778936897083 0  1.438605690073396 0.5702366817214194 0  1.851778102902867 0.6169409446553686 0  0.9375 1.5 0  1.918499765346388 0.9737703250858507 0  1.066617221574711 1.060327143126178 0  0.17830064634795 0.65625 0  1.139464543633635 0.3182162642668528 0  1.214887260891528 0.6824917486258804 0  0.4470960700565646 0.7803305254813445 0  2.056073894593081 1.292965518236122 0  0.7800417460951754 1.309431349558015 0  0.7102942521579887 1.054059105222724 0  2.772203778896419 0.7508393899039921 0  3 0.9375 0  2.4375 1.5 0  0.5625 1.5 0  3 0.5625 0  1.3125 1.5 0  0 0.9375 0  3 1.3125 0  2.8125 1.5 0  3 0.1875 0  1.74009613212014 1.312845810865967 0  0.1858279553328271 1.04932632064409 0  1.582414108002925 0.3243096672004901 0  0.4576542986122824 1.328517530191622 0  1.30595470876181 0 0  0.1616828829631953 1.229471150973137 0  1.600689448835705 0.8342777580615786 0  2.184954406689295 0.9543424310663166 0  2.356848459734244 1.033731425282726 0  2.249618867339344 1.318565528322325 0  2.031012140730151 0.6383085966483963 0  1.264473591492607 0.1926369230867345 0  1.93294708275428 0.2969945700235964 0  1.406271966518558 1.353045118606616 0  0.2855042944080262 1.351202341158466 0  2.163692386827529 0.4469681835123645 0  2.058709899218631 1.05982604745508 0  1.21875 1.361760465218127 0  1.232585115983139 1.060656719142284 0  1.682328919476849 1.161572426192166 0  0.4864612871934715 1.100927295036068 0  2.842393003195402 0.1547034389615206 0  1.901710724058898 1.340659870484523 0  2.578488906869203 1.212378831230944 0  0.346730023619794 1.013455011579226 0  1.758789788261688 0.970834021568154 0  0.9209577900333827 0.984909924281538 0  2.461973640748163 0.2490632223012221 0  2.833434714842781 1.102015011431888 0  1.485476187845101 1.118115752354218 0  0.7869575052851041 0.2127716822913992 0  1.091585464669657 0.4673676525872368 0  0.9308375558444295 1.286291202675726 0  2.609275627299536 0.5207885309723005 0  2.859418780372727 0.4404724026784034 0  0.1368795735450182 0.2913992261536034 0  0.5088670694303536 0.6431238265444117 0  0.9924988599062848 0.7887715626383616 0  0.8674753477047706 0.6821390867986818 0  0.6993572585883594 0.9038049302516018 0  1.53924450853783 0.6818717864694561 0  1.27954362181495 0.818196911265721 0  2.885754890315292 0.65625 0  0.1199579452929171 0.84375 0  0.3101130847613819 0.7251157056441525 0  2.683488575489726 1.10528265125029 0  2.637912450120847 1.350340704724588 0  0.65625 1.387568746661148 0  2.204969505432462 0.7645924845263576 0  2.34230217156612 0.6870332922078795 0  2.458336421316689 0.930056573232228 0  1.547170662421109 0.4687109428674099 0  0.55426355401875 0.2785752421136156 0  1.927690911684502 0.7425770788416013 0  2.650983472818039 0.6639703826486528 0  0.2807744135836687 0.2731407085328489 0  2.697063502273202 0.4130460425434029 0  1.768721210125562 0.4985606178023466 0  1.59375 1.394491048145999 0  1.03125 1.39617417476255 0  2.649124789533757 0.9376608889715211 0  2.899345577629528 0.84375 0  2.448792339301353 1.151333513094988 0  2.455516477512143 0.7671738041202795 0  0.1479512725554237 1.367277900867101 0  1.733007556765436 0.6856365299097277 0  2.865 0 0  0.407900401917371 0.1920322062602331 0  1.482893533441057 0.9020086108979886 0  2.902194538181383 1.21875 0  2.860324471164851 1.360324471164851 0  0.9128790560808855 0.5311054613533476 0  0.7396036279203969 1.183264973390871 0  1.379392725427689 0.4456149894503371 0  0.8305263666170877 0.339868595109382 0  2.352639297837627 1.399880277695907 0  2.15625 1.5 0  2.32277762299786 1.203473773731512 0  1.818471673600783 0.235727380341035 0  1.269129800285538 0.3222823294390822 0  2.329228807632851 0.5297324129610972 0  0.430777275012463 0.469645907614299 0  1.390502090335328 0.1630587681988043 0  1.149408636841162 1.157447166816889 0  1.687853147042319 0.2519031106491252 0  0.3941048876243997 0.8956837842542459 0  1.877835046604575 0.410724628626283 0  1.348230251479045 0.6691802479050837 0  2.336954765206726 0.2613063289913201 0  2.514033953321691 1.393470229958569 0  0 0.46875 0  0.1287800079303892 0.5340043503292357 0  2.441328451749267 0.3721441168812449 0  0.9333932382689634 0.2670516659043625 0  1.13959172768211 0.5827503401695603 0  0.8703665929291606 1.395134656069543 0  1.240468926246127 0.9364063612525604 0  1.433475419570003 1.229904687600933 0  1.020534477629395 0.9101139083191684 0  1.108777781305164 0.7462713331880694 0  0.6468125623079457 0.6038935958199032 0  1.665312060212151 0.428962863572448 0  0.2512528931669099 0.5500044694745148 0  2.66971919386773 0.2450375495263612 0  2.901855502368762 0.2640467328343441 0  2.063534245742155 0.9373123558679215 0  2.031795413587333 0.1972457754676831 0  1.836924180675512 1.065887991891963 0  1.001601941364679 1.16852535211421 0  0.8051266927803291 0.9581030042697194 0  0.7620228346493961 0.7461373576581022 0  3 1.03125 0  2.084817260746984 1.176705869274554 0  2.085981885570153 0.5347538843754811 0  1.496744890324478 0.239335226969819 0  1.894594308711337 0.8570406362709689 0  1.78125 1.5 0  2.109375 1.394928085212741 0  2.71875 1.5 0  0.4943575340553394 1.217544978302146 0  0.5937185858435849 1.055241883498284 0  2.227680725187669 0.3075299344665331 0  0.5158109084499103 0.3891628929402524 0  1.96875 1.5 0  0.6036564600183
[...]
<PointData  Vectors="f_60"> 
<DataArray  type="Float64"  Name="f_60"  NumberOfComponents="3" format="ascii">-1.2834262564499944e-04 -1.1620428351236457e-04 0.0000000000000000e+00  6.2028448831158407e-05 1.2662005185095803e-05 0.0000000000000000e+00  2.8941276962654697e-05 1.6250915698607054e-05 0.0000000000000000e+00  7.6898580255647386e-05 3.7738902965363332e-05 0.0000000000000000e+00  6.2054317220452829e-04 6.0130386116255714e-04 0.0000000000000000e+00  5.9074699174318168e-04 7.8384992286152351e-04 0.0000000000000000e+00  -8.7380981935437300e-04 1.0034737692254665e-03 0.0000000000000000e+00  -1.5406115861544301e-04 1.1312972056971167e-03 0.0000000000000000e+00  -5.5377012972618734e-04 6.6619348422564020e-04 0.0000000000000000e+00  6.1022936188651728e-04 -7.6033171102933805e-05 0.0000000000000000e+00  2.8507890163167158e-04 1.2765203778628599e-03 0.0000000000000000e+00  -2.9527892687285164e-04 1.8309021964073846e-03 0.0000000000000000e+00  2.9837956060708499e-04 1.8113542308759883e-04 0.0000000000000000e+00  1.7473184471339590e-04 1.7554209932255115e-04 0.0000000000000000e+00  2.6218067394584589e-04 2.3037978756020047e-04 0.0000000000000000e+00  -3.6282576782417208e-04 5.9026046239917646e-04 0.0000000000000000e+00  3.2493575321573451e-04 8.9722289663993259e-04 0.0000000000000000e+00  -4.8295948822315100e-05 1.0098451359484778e-03 0.0000000000000000e+00  -1.1567843716775874e-04 6.2368198782629500e-04 0.0000000000000000e+00  -3.1356378773815118e-04 7.7591168375010591e-04 0.0000000000000000e+00  -4.2968548252453255e-04 1.1516662032808730e-03 0.0000000000000000e+00  -2.3888069558973356e-04 4.3882107578490173e-04 0.0000000000000000e+00  -1.7644415610750382e-04 1.2312152730739915e-04 0.0000000000000000e+00  -3.4730602282410933e-04 4.1234982810650102e-04 0.0000000000000000e+00  1.8507152867851053e-04 9.9915028355382568e-04 0.0000000000000000e+00  4.6153516903746735e-04 1.3425203570515537e-03 0.0000000000000000e+00  -7.8254446560511353e-04 2.8118675386505361e-04 0.0000000000000000e+00  1.0371556213348438e-04 5.4965846485146024e-04 0.0000000000000000e+00  -1.8033627637941338e-04 1.0895015575206101e-03 0.0000000000000000e+00  7.5969464911753345e-05 9.1438308827533534e-04 0.0000000000000000e+00  1.8453535983675346e-04 1.1234370142015290e-03 0.0000000000000000e+00  -5.4522212932175637e-04 1.1032883651522127e-03 0.0000000000000000e+00  3.3083038492407715e-05 7.9791980163051006e-05 0.0000000000000000e+00  1.0513609211093737e-04 1.5118469554775631e-05 0.0000000000000000e+00  -3.3047394233329957e-04 1.9537437278580952e-04 0.0000000000000000e+00  -1.0086798523157483e-04 7.8562583610836730e-04 0.0000000000000000e+00  2.8450770043065524e-04 1.6959636683096938e-03 0.0000000000000000e+00  -4.9463020474036672e-04 5.4638265536736345e-04 0.0000000000000000e+00  1.9623634967327705e-05 4.2175749273946000e-04 0.0000000000000000e+00  -5.6025935527113676e-05 7.3285585649317687e-04 0.0000000000000000e+00  6.0491985522400206e-04 6.9903281950861921e-04 0.0000000000000000e+00  8.6238297531995953e-04 4.4773799022825771e-04 0.0000000000000000e+00  -6.2748766101039641e-04 9.6396931166333854e-04 0.0000000000000000e+00  -2.0374010596866789e-04 1.1023328949659858e-04 0.0000000000000000e+00  -8.8776844500199526e-05 -4.2481466569620363e-05 0.0000000000000000e+00  -1.6539989971536197e-04 -1.2145808256941308e-06 0.0000000000000000e+00  -2.2332100188984639e-04 2.4695049309750338e-04 0.0000000000000000e+00  -2.2245083416343753e-04 6.3316274565571636e-04 0.0000000000000000e+00  2.7676568890192856e-04 1.0780697027926629e-03 0.0000000000000000e+00  2.0422283227116851e-04 9.6903725137084315e-04 0.0000000000000000e+00  8.6062623596036092e-04 4.5431481927101067e-04 0.0000000000000000e+00  3.3589039644136377e-04 5.5646778765854315e-04 0.0000000000000000e+00  -5.8378549267112565e-04 6.4085784490907922e-04 0.0000000000000000e+00  -2.9540275534583314e-04 1.7464315252819032e-04 0.0000000000000000e+00  3.5804886997659727e-05 5.6033076754634856e-06 0.0000000000000000e+00  2.7415803021268829e-04 2.0129619920752537e-04 0.0000000000000000e+00  4.9773274513904885e-04 7.3757979511718588e-04 0.0000000000000000e+00  3.2380314963374100e-04 9.6081185018369352e-04 0.0000000000000000e+00  -8.0537589050022984e-05 6.9523322555464220e-04 0.0000000000000000e+00  -1.7104768424062205e-04 7.0798804209621800e-04 0.0000000000000000e+00  -1.3754993552393696e-04 2.2006382872121551e-04 0.0000000000000000e+00  4.4317500920395918e-04 5.3591356164823655e-04 0.0000000000000000e+00  6.2063688335776501e-04 1.3481946496400309e-04 0.0000000000000000e+00  6.6636742222885188e-04 -3.6528393271766893e-04 0.0000000000000000e+00  1.5356460981904640e-05 -8.0733608054528292e-05 0.0000000000000000e+00  -1.1402632856610734e-04 -3.6255257280225408e-05 0.0000000000000000e+00  2.2746190668967091e-05 -1.1796653220056438e-04 0.0000000000000000e+00  2.3114866469122847e-04 1.2429840101066037e-04 0.0000000000000000e+00  1.0815218749763210e-03 1.1144948815908393e-03 0.0000000000000000e+00  1.6117383671440044e-03 5.6998044055731078e-04 0.0000000000000000e+00  5.0594901773562797e-04 4.9637125143473220e-04 0.0000000000000000e+00  -5.5398255932809172e-04 1.0454433912383430e-03 0.0000000000000000e+00  -4.3571280759279070e-04 -1.7441922688693414e-04 0.0000000000000000e+00  1.1620521671694640e-03 -2.0617734012002061e-03 0.0000000000000000e+00  -5.0609483730893465e-05 -1.2243170538470891e-03 0.0000000000000000e+00  -5.3867827387033768e-03 3.1769450326103160e-03 0.0000000000000000e+00  4.9517578937338387e-04 1.8238624847076793e-03 0.0000000000000000e+00  -9.7483251476495194e-06 1.1835805007675623e-05 0.0000000000000000e+00  -7.4426306144998735e-04 -1.0308683997323541e-04 0.0000000000000000e+00  3.8091916573573406e-05 -8.6016641534063351e-04 0.0000000000000000e+00  1.3261180695013716e-05 -1.4612115274081781e-06 0.0000000000000000e+00  3.4707016729889641e-04 1.4538242397459929e-03 0.0000000000000000e+00  2.5427479998203328e-04 5.6994666160863398e-04 0.0000000000000000e+00  -2.3489994140757399e-04 -1.8180101876486752e-04 0.0000000000000000e+00  -8.8938816497593137e-05 -2.3123335552442326e-04 0.0000000000000000e+00  -1.8714582595400241e-03 6.3917033589713812e-01 0.0000000000000000e+00  6.9116060408868377e-02 1.7479405619007564e+00 0.0000000000000000e+00  -3.0487012249870639e-02 1.3697158701752468e+00 0.0000000000000000e+00  3.6425716541876957e-01 -1.3336785264678237e+00 0.0000000000000000e+00  -3.0499516470245908e-01 9.5971756681881371e-01 0.0000000000000000e+00  1.4493776811439537e-03 -1.3557571911769404e+00 0.0000000000000000e+00  7.2440833240873484e-02 -2.2786263792226320e+00 0.0000000000000000e+00  1.1232038563606011e-02 -2.2478330622600851e+00 0.0000000000000000e+00  -9.3441833031488627e-05 -9.6048091535658393e-04 0.0000000000000000e+00  8.4732357433560071e-02 4.3753502105010161e-01 0.0000000000000000e+00  -1.9258708971181798e-04 -9.1660036723434433e-04 0.0000000000000000e+00  4.6062042819003492e-06 -3.7253375990631401e-05 0.0000000000000000e+00  -6.8100964900473853e-03 -1.6183127364958512e-04 0.0000000000000000e+00  -1.0838578230632894e-04 -9.0782669770393220e-04 0.0000000000000000e+00  5.8250328646724050e-04 2.2706631585528813e-04 0.0000000000000000e+00  1.3474553583605433e-03 1.1402948721231438e-05 0.0000000000000000e+00  6.0555494635677401e-02 1.4792881861781784e+00 0.0000000000000000e+00  -1.2372253997983276e-01 2.2102991774485226e+00 0.0000000000000000e+00  -1.1605149609097382e-01 -1.0878534283343853e+00 0.0000000000000000e+00  2.2101089869539955e-01 -5.1392606845012101e-01 0.0000000000000000e+00  -7.6064176622020627e-02 -1.7646670507182272e+00 0.0000000000000000e+00  4.9648841850762321e-02 -1.1935125194289212e-01 0.0000000000000000e+00  2.4012660694184710e-03 6.0707303508745913e-01 0.0000000000000000e+00  -3.4442136786501831e-03 1.8638315354056139e+00 0.0000000000000000e+00  -9.5001624071795715e-02 1.5711014082950254e+00 0.0000000000000000e+00  2.8221778323864796e-02 2.4560059508855620e-02 0.0000000000000000e+00  -5.8089055952848889e-01 1.1807299864290202e+00 0.0000000000000000e+00  -1.4914664577941919e-01 2.2512419130951411e+00 0.0000000000000000e+00  6.2391228582670688e-01 2.7561701654592099e+00 0.0000000000000000e+00  4.0268907976723789e-01 1.1477367128463820e+00 0.0000000000000000e+00  1.4339724311896843e-01 1.3153943255215002e+00 0.0000000000000000e+00  1.4195432315653240e+00 3.4733090520031378e+00 0.0000000000000000e+00  2.1198900225369602e-01 -1.4484604551537297e+00 0.0000000000000000e+00  2.4337952257998791e-04 -7.9960527581086492e-04 0.0000000000000000e+00  -7.5968773167133255e-02 1.0008310681758112e+00 0.0000000000000000e+00  3.1064424598703070e-02 2.4545847127857567e+00 0.0000000000000000e+00  6.3090894034757653e-03 -4.9526131025641551e-01 0.0000000000000000e+00  -1.5855404297158351e-01 -1.0919704583994208e+00 0.0000000000000000e+00  6.5403484394205846e-02 -1.9491176847691636e+00 0.0000000000000000e+00  -7.6993356049931655e-04 -7.7444437075203172e-04 0.0000000000000000e+00  -8.0641561209710133e-01 -5.4112215902761163e-01 0.0000000000000000e+00  -3.5054492797316400e-01 6.4554258246168650e-01 0.0000000000000000e+00  7.9160173012897503e-02 1.1016265762757844e+00 0.0000000000000000e+00  -3.1216321268204433e-02 1.9020316030102049e+00 0.0000000000000000e+00  1.0912413504234615e-01 -1.3596630104147347e+00 0.0000000000000000e+00  1.4612199452912228e-04 -8.1864663661541102e-04 0.0000000000000000e+00  5.5219488592423989e-02 -9.9623180129633826e-01 0.0000000000000000e+00  2.8878931011993278e-02 1.6515040128483331e+00 0.0000000000000000e+00  -5.9293177475668113e-03 -1.6570980915144575e+00 0.0000000000000000e+00  -1.2619359123820587e-01 -1.6993032662212808e+00 0.0000000000000000e+00  -1.5125559895125569e+00 -4.9281305334144593e-01 0.0000000000000000e+00  5.2183589416798311e-06 7.5303114127286597e-07 0.0000000000000000e+00  1.1496151944487183e-01 -7.8796205378366435e-01 0.0000000000000000e+00  -2.3551159583404913e-01 2.4015651005471614e+00 0.0000000000000000e+00  1.0062079286994824e-04 -3.3109844834415487e-04 0.0000000000000000e+00  1.0161871949671909e-01 1.4688641798018103e+00 0.0000000000000000e+00  5.5541918092391465e-02 6.6214943816463767e-01 0.0000000000000000e+00  -1.7870915333439579e-02 1.3077140780009995e+00 0.0000000000000000e+00  3.6339231244769259e-04 -9.3947482266962430e-04 0.0000000000000000e+00  4.8687527128111120e-02 -1.5921513631324955e+00 0.0000000000000000e+00  -3.6036260693721830e-02 -2.1961708912989200e+00 0.0000000000000000e+00  5.3307466073174950e-02 -2.1121003064474260e+00 0.0000000000000000e+00  1.4912287245513781e-01 5.1915948291116032e-01 0.0000000000000000e+00  2.8101978196845411e-02 2.3515944689885759e+00 0.0000000000000000e+00  5.8923400952515984e-02 -2.4359798674047379e+00 0.0000000000000000e+00  9.7166597812151187e-02 1.4346467400274969e+00 0.0000000000000000e+00  -1.7175470452923061e-01 -1.7309775876467948e+00 0.0000000000000000e+00  -3.9523838031309592e-02 -1.6896815284386815e+00 0.0000000000000000e+00  -5.3484312783266486e-02 1.6355267734845820e+00 0.0000000000000000e+00  1.6108466424195199e-03 -2.5551615453255229e-04 0.0000000000000000e+00  4.1422664850910861e-05 -9.5766189563285288e-04 0.0000000000000000e+00  -2.9991844521354462e-04 -6.3257500014484401e-04 0.0000000000000000e+00  -2.8761424099491748e-03 -3.0948955286995308e-04 0.0000000000000000e+00  -3.8823901717914154e-04 -5.0854157893559624e-04 0.0000000000000000e+00  1.0540964396032592e-05 -1.4344753235903651e-05 0.0000000000000000e+00  -6.4257602952970741e-04 -1.8442577479830765e-04 0.0000000000000000e+00  2.8582890721306959e-03 -4.7633594576105539e-04 0.0000000000000000e+00  -3.5200003670782369e-03 -1.3885697128454631e-03 0.0000000000000000e+00  -1.0783748033174294e-01 8.7579929203247275e-01 0.0000000000000000e+00  -1.2549707968415966e-02 -1.8037818991932055e+00 0.0000000000000000e+00  -2.5478300728634648e-02 -3.3343198789998574e-01 0.0000000000000000e+00  -1.5350898689293158e-01 -2.2876921148077640e+00 0.0000000000000000e+00  -1.0008261135822734e-03 7.3174272988927073e-04 0.0000000000000000e+00  -3.3105481811602659e-02 -2.3238067233837807e+00 0.0000000000000000e+00  1.4772498008844259e-02 -1.0700626268554490e+00 0.0000000000000000e+00  1.1623785507028346e-01 1.8552448643544212e-01 0.0000000000000000e+00  3.4821806809427491e-01 1.7225830866165728e+00 0.0000000000000000e+00  3.2045608085935834e-01 -2.1622057183910868e+00 0.0000000000000000e+00  -2.5237543817277091e-02 7.0869266648583540e-01 0.0000000000000000e+00  2.0868432478557913e-01 7.2055796686364160e-01 0.0000000000000000e+00  -1.7133182046453196e-01 -2.0711833850321586e+00 0.0000000000000000e+00  -3.0332720293027726e-01 -5.7888073391622197e-01 0.0000000000000000e+00  -2.0688847774444505e-01 2.1404079999267389e+00 0.0000000000000000e+00  -2.1179901491310432e-01 6.0426055175435800e-01 0.0000000000000000e+00  1.4546123675620928e-01 1.7198634228457357e+00 0.0000000000000000e+00  -8.3266193404883254e-02 1.9332828337333128e+00 0.0000000000000000e+00  -7.0910336687522224e-02 1.8455056109572880e+00 0.0000000000000000e+00  3.7508635575450691e-04 -1.7571200507669689e+00 0.0000000000000000e+00  -4.8176083902800634e-02 -1.6820319680118003e+00 0.0000000000000000e+00  -1.8062347447748379e+00 7.2352743961328836e-01 0.0000000000000000e+00  1.1456837921391649e-01 -1.0771524400924550e+00 0.0000000000000000e+00  6.7979650372227662e-01 -1.7330804970102749e+00 0.0000000000000000e+00  -3.7117399053644799e-02 1.2396165199929796e+00 0.0000000000000000e+00  3.0526992199308545e-02 1.7134697593979178e+00 0.0000000000000000e+00  -5.9702681179415067e-02 2.1491385942598882e+00 0.0000000000000000e+00  -8.9348745594608714e-01 -1.9770703489268704e-01 0.0000000000000000e+00  8.2051475124490603e-01 2.6030767795301563e-01 0.0000000000000000e+00  -6.3739348558947820e-02 2.3938975705460845e+00 0.0000000000000000e+00  1.6738917123803232e-01 -1.6635509218275955e+00 0.0000000000000000e+00  8.2728759897494897e-02 -1.6242735183234638e+00 0.0000000000000000e+00  -1.5713939825256940e-01 1.7329224355421675e+00 0.0000000000000000e+00  -4.4707345467823512e-01 1.1892034005849110e+00 0.0000000000000000e+00  -1.0702411998852370e+00 4.9027267718774747e-01 0.0000000000000000e+00  1.2070891008921718e-01 -2.1097925487158062e+00 0.0000000000000000e+00  8.2794929210608006e-02 -9.5369611539579346e-01 0.0000000000000000e+00  2.8663992260679463e-02 -8.0304157660099817e-01 0.0000000000000000e+00  3.5197506621657770e-02 1.8142680047156923e+00 0.0000000000000000e+00  4.1920888932388302e-03 -1.1973275810230581e+00 0.0000000000000000e+00  2.2382981085864090e-02 1.7686815798477062e+00 0.0000000000000000e+00  1.5823159923625391e-02 -1.3858017387187391e-01 0.0000000000000000e+00  -3.7128444705222791e-01 7.4826876600742298e-01 0.0000000000000000e+00  1.9638365830560011e-02 -2.0361173316317975e+00 0.0000000000000000e+00  2.7896154208608269e-02 2.3018637948517053e+00 0.0000000000000000e+00  9.0800553333662493e-01 2.7877881453597135e+00 0.0000000000000000e+00  9.7022173965806369e-01 -4.8072221882046778e-01 0.0000000000000000e+00  7.6719648729380224e-02 6.1215011516658036e-01 0.0000000000000000e+00  -3.0228858252289305e-02 -8.6952885547473791e-01 0.0000000000000000e+00  -2.2468683672203889e-02 1.6521095016964797e+00 0.0000000000000000e+00  2.7510214408076494e-01 2.0138313243979287e+00 0.0000000000000000e+00  3.6927470980681595e-02 1.4190886173102115e+00 0.0000000000000000e+00  2.2351889280097328e-01 9.2171547445017454e-01 0.0000000000000000e+00  -1.5387982188452260e-02 -1.8406774420835479e+00 0.0000000000000000e+00  -7.9704276936690924e-02 2.8223703176430797e+00 0.0000000000000000e+00  2.8103401554441299e-01 2.0674980636607283e+00 0.0000000000000000e+00  -7.1681338534764061e-01 3.0304196684099782e+00 0.0000000000000000e+00  -9.7447877965211663e-03 2.0599785399734647e+00 0.0000000000000000e+00  2.2124045657492500e-01 -7.9792245817396756e-01 0.0000000000000000e+00  -1.4001450866442433e-01 -2.1419243364198546e+00 0.0000000000000000e+00  4.3350954646599676e-01 1.8892209494561603e+00 0.0000000000000000e+00  1.2575560366890273e-01 5.6496415621983676e-01 0.0000000000000000e+00  5.4352501271745057e-01 2.5361024129130469e+00 0.0000000000000000e+00  3.3570947380652957e-02 1.8144926939727510e+00 0.0000000000000000e+00  -1.0029294414436470e-01 -2.3174568670066891e+00 0.0000000000000000e+00  1.9245954040706031e-02 5.5495767767575355e-01 0.0000000000000000e+00  1.2164185130122723e-04 -1.1500703490237243e-04 0.0000000000000000e+00  2.3928088754539403e-02 -1.2068136498277473e+00 0.0000000000000000e+00  -6.7439135827174774e-03 2.3416576071240280e+00 0.0000000000000000e+00  1.2059700170782064e+00 -6.8882452714405729e-01 0.0000000000000000e+00  2.0699254406610512e+00 -1.4363331801173590e-01 0.0000000000000000e+00  6.5984362785801554e-02 2.3404767184956086e+00 0.0000000000000000e+00  -8.0137446089616565e-02 -2.3728985682271162e+00 0.0000000000000000e+00  9.1625781649365509e-02 -1.9546651451073533e+00 0.0000000000000000e+00  5.9257742232287816e-02 1.7890085048692553e-01 0.0000000000000000e+00  9.4663759326238245e-03 8.0112100230847116e-01 0.0000000000000000e+00  6.5723279274183940e-04 -9.3886808527164590e-04 0.0000000000000000e+00  3.9298892494992521e-01 -3.3537491501794897e-01 0.0000000000000000e+00  -1.6475900668696303e-01 2.0966158384353610e+00 0.0000000000000000e+00  1.0929182636373315e-01 5.6349775076343822e-01 0.0000000000000000e+00  -2.0713235257744766e-01 1.1870798499650923e+00 0.0000000000000000e+00  1.5803805885174066e-01 -2.1509027028306282e+00 0.0000000000000000e+00  2.6076752636054151e-01 -1.6478078646469938e+00 0.0000000000000000e+00  -1.0704148574243026e-01 1.3247704971008738e+00 0.0000000000000000e+00  1.1788570974703483e-01 -1.4784554322650032e+00 0.0000000000000000e+00  1.6324050026931325e-02 -9.7636969073987989e-01 0.0000000000000000e+00  -9.1848022208315561e-02 -8.9943769075203392e-02 0.0000000000000000e+00  5.6524062363625886e-02 -2.3158137647078965e+00 0.0000000000000000e+00  -3.5340321478659936e-01 1.4219960094283852e+00 0.0000000000000000e+00  1.2378911307981619e+00 -2.9325534148254667e-01 0.0000000000000000e+00  -1.2495865009822595e-05 -1.9555821348920343e-05 0.0000000000000000e+00  7.0190869715907822e-02 -2.1878745240759812e+00 0.0000000000000000e+00  -5.9209656041439496e-01 1.2545598799346571e+00 0.0000000000000000e+00  -5.6565151240967074e-02 1.8566624555578628e+00 0.0000000000000000e+00  5.6464350229886127e-02 6.5278421954235333e-01 0.0000000000000000e+00  -3.8350955592211983e-01 1.7405948327190532e+00 0.0000000000000000e+00  -2.7639191927130467e-02 1.6235798229084444e+00 0.0000000000000000e+00  -1.0528289386557753e-01 6.1571246974873695e-01 0.0000000000000000e+00  6.2516975484820068e-03 -1.9444049539287380e+00 0.0000000000000000e+00  3.7568553562956478e-02 -8.1673212665499628e-01 0.0000000000000000e+00  5.9764977568949093e-02 1.3772039502543407e+00 0.0000000000000000e+00  -5.2324087097615594e-03 -2.1559891060946725e+00 0.0000000000000000e+00  6.9057138907395649e-02 1.0984565940702169e+00 0.0000000000000000e+00  -1.2987311767638610e+00 2.6314888894661332e+00 0.0000000000000000e+00  -2.1177220922034676e+00 2.4098807578897063e+00 0.0000000000000000e+00  1.1944851627662480e-01 2.0018788809669719e+00 0.0000000000000000e+00  6.3330275547630002e-02 5.7177068237288076e-01 0.0000000000000000e+00  3.5719019242021144e-02 1.9649219780720444e+00 0.0000000000000000e+00  -8.7193320126328161e-02 -1.3940114456287598e+00 0.0000000000000000e+00  -2.0276289295806511e-02 -9.2605435261568692e-01 0.0000000000000000e+00  4.9438869382556372e-02 -2.3465569996453723e+00 0.0000000000000000e+00  1.6171949052673370e-03 2.9078812126669763e-04 0.0000000000000000e+00  1.7216594266536772e-01 2.4823852247158560e+00 0.0000000000000000e+00  -7.4164815451577271e-02 2.6660214376840421e+00 0.0000000000000000e+00  -1.3526106941641577e-01 2.3095224090758992e+00 0.0000000000000000e+00  2.1489436295714807e-02 -6.4582214353357437e-01 0.0000000000000000e+00  -1.0985357619588534e-04 -7.7467424341741897e-04 0.0000000000000000e+00  1.7526892056258025e-01 2.0863143850182375e+00 0.000000