<?xml version="1.0"?>
<VTKFile type="UnstructuredGrid"  version="0.1"  >
<UnstructuredGrid>
<Piece  NumberOfPoints="4978" NumberOfCells="9630">
<Points>
<DataArray  type="Float64"  NumberOfComponents="3"  format="ascii">0 1.5 0  0 0 0  0.06190941752361886 0 0  0.06190941752361886 0.02304324263930277 0  0.07687367483109155 0.06663263502519032 0  0.1051805799723963 0.1030013474942385 0  0.1437626405485843 0.128208265731708 0  0.1884388916338735 0.1395218290209338 0  0.2343679681997119 0.1357160372315063 0  0.2765727421371398 0.117203306956754 0  0.3104796713154951 0.0859897797765535 0  0.3324144138380889 0.04545792568865569 0  0.34 0 0  0.4722134970410927 0 0  0.4722134970410927 0.02388743731615415 0  0.4894717723551502 0.0684361811740563 0  0.5216574972706967 0.1037422395464312 0  0.5644238112906292 0.1250373336124665 0  0.6119948867302293 0.1294454429183545 0  0.6579459862509499 0.1163712278761581 0  0.6960711592386857 0.08758043367405244 0  0.7212213898225662 0.04696141660432988 0  0.73 0 0  0.85 0 0  0.857341522555727 0.04635254915624212 0  0.8786474508437579 0.08816778784387098 0  0.9118322121561291 0.1213525491562421 0  0.9536474508437579 0.142658477444273 0  1 0.15 0  1.046352549156242 0.142658477444273 0  1.088167787843871 0.1213525491562421 0  1.121352549156242 0.08816778784387097 0  1.142658477444273 0.04635254915624211 0  1.15 0 0  1.461909417523619 0 0  1.461909417523619 0.02304324263930277 0  1.476873674831092 0.06663263502519032 0  1.505180579972396 0.1030013474942385 0  1.543762640548584 0.128208265731708 0  1.588438891633874 0.1395218290209338 0  1.634367968199712 0.1357160372315063 0  1.67657274213714 0.117203306956754 0  1.710479671315495 0.0859897797765535 0  1.732414413838089 0.04545792568865569 0  1.74 0 0  1.78 0 0  1.789134456098646 0.04592201188381079 0  1.815147186257614 0.08485281374238571 0  1.854077988116189 0.1108655439013544 0  1.9 0.12 0  1.945922011883811 0.1108655439013544 0  1.984852813742386 0.08485281374238569 0  2.010865543901355 0.04592201188381077 0  2.02 0 0  2.161909417523619 0 0  2.161909417523619 0.02304324263930277 0  2.176873674831092 0.06663263502519032 0  2.205180579972396 0.1030013474942385 0  2.243762640548584 0.128208265731708 0  2.288438891633873 0.1395218290209338 0  2.334367968199712 0.1357160372315063 0  2.37657274213714 0.117203306956754 0  2.410479671315495 0.0859897797765535 0  2.432414413838089 0.04545792568865569 0  2.44 0 0  2.472213497041093 0 0  2.472213497041093 0.02388743731615415 0  2.48947177235515 0.0684361811740563 0  2.521657497270697 0.1037422395464312 0  2.564423811290629 0.1250373336124665 0  2.611994886730229 0.1294454429183545 0  2.65794598625095 0.1163712278761581 0  2.696071159238686 0.08758043367405244 0  2.721221389822567 0.04696141660432988 0  2.73 0 0  3 0 0  3 1.5 0  0 0.75 0  3 0.75 0  1.5 1.5 0  0 0.375 0  0 0.1875 0  0 0.09375 0  0.75 1.5 0  2.25 1.5 0  1.137279452465634 0.8667483509386543 0  2.055384907633385 0.8149748422668953 0  0.5545701656450307 0.9454298343549693 0  2.545804583542266 1.045804583542266 0  2.462951104370831 0.5854482317237805 0  1.6063536999151 1.018574336065804 0  0.7683179692414909 0.5511078775270282 0  1.647896012796697 0.5780189144999826 0  1.875 1.5 0  0.3683226130580748 0.5893782185394094 0  0.375 1.5 0  0 1.125 0  3 0.375 0  1.125 1.5 0  3 1.125 0  2.625 1.5 0  1.247216233241016 0.4851891764902285 0  0.8779404074027722 1.143194262378568 0  1.992337703792022 0.4642129848858538 0  2.200035536160075 1.144037289792772 0  1.3125 1.206118267007311 0  1.882280687299076 1.18026905614258 0  0.8375010042452264 0.8437030129736524 0  0.2703628106324028 0.8673582108832857 0  0.336944444033578 1.181320038574892 0  1.424720841531434 0.7792108746582741 0  2.763716218670896 0.5625 0  0.6112325230261646 1.216037756380734 0  2.429292395855053 1.293345775631689 0  2.798691155259055 0.9375 0  2.340750225085827 0.8450755885956063 0  2.74506315455788 1.24506315455788 0  0.4115012634770826 0.3359864655288552 0  1.6875 1.5 0  1.553212834656815 1.259295117559057 0  1.783849920010049 0.8130750647527071 0  2.590242300399914 0.800172794523538 0  2.206538789959823 0.6067588023913982 0  1.022769083327432 0.627137676743421 0  2.0625 1.5 0  2.566013274303806 0.3667751817948443 0  2.317230353528816 0.3853650267397287 0  0.9546600707351991 0.3912757388497677 0  1.76490060939521 0.3540000691256479 0  1.398169292756645 0.3089248951275104 0  0.1875 1.5 0  0.6961815191548208 0.3380429757712475 0  0.6390751493076395 0.7361434669345621 0  1.385952842918209 0.9972233609662619 0  1.082019261833385 1.265823315390121 0  2.784258672215756 0.3048233224522298 0  0 0.5625 0  0.2130557952202133 0.4325455696870932 0  2.110276358430479 0.2903936515686117 0  0 1.3125 0  0.5618175915722093 0.5022778936897083 0  1.438605690073396 0.5702366817214194 0  1.851778102902867 0.6169409446553686 0  0.9375 1.5 0  1.918499765346388 0.9737703250858507 0  1.066617221574711 1.060327143126178 0  0.17830064634795 0.65625 0  1.139464543633635 0.3182162642668528 0  1.214887260891528 0.6824917486258804 0  0.4470960700565646 0.7803305254813445 0  2.056073894593081 1.292965518236122 0  0.7800417460951754 1.309431349558015 0  0.7102942521579887 1.054059105222724 0  2.772203778896419 0.7508393899039921 0  3 0.9375 0  2.4375 1.5 0  0.5625 1.5 0  3 0.5625 0  1.3125 1.5 0  0 0.9375 0  3 1.3125 0  2.8125 1.5 0  3 0.1875 0  1.74009613212014 1.312845810865967 0  0.1858279553328271 1.04932632064409 0  1.582414108002925 0.3243096672004901 0  0.4576542986122824 1.328517530191622 0  1.30595470876181 0 0  0.1616828829631953 1.229471150973137 0  1.600689448835705 0.8342777580615786 0  2.184954406689295 0.9543424310663166 0  2.356848459734244 1.033731425282726 0  2.249618867339344 1.318565528322325 0  2.031012140730151 0.6383085966483963 0  1.264473591492607 0.1926369230867345 0  1.93294708275428 0.2969945700235964 0  1.406271966518558 1.353045118606616 0  0.2855042944080262 1.351202341158466 0  2.163692386827529 0.4469681835123645 0  2.058709899218631 1.05982604745508 0  1.21875 1.361760465218127 0  1.232585115983139 1.060656719142284 0  1.682328919476849 1.161572426192166 0  0.4864612871934715 1.100927295036068 0  2.842393003195402 0.1547034389615206 0  1.901710724058898 1.340659870484523 0  2.578488906869203 1.212378831230944 0  0.346730023619794 1.013455011579226 0  1.758789788261688 0.970834021568154 0  0.9209577900333827 0.984909924281538 0  2.461973640748163 0.2490632223012221 0  2.833434714842781 1.102015011431888 0  1.485476187845101 1.118115752354218 0  0.7869575052851041 0.2127716822913992 0  1.091585464669657 0.4673676525872368 0  0.9308375558444295 1.286291202675726 0  2.609275627299536 0.5207885309723005 0  2.859418780372727 0.4404724026784034 0  0.1368795735450182 0.2913992261536034 0  0.5088670694303536 0.6431238265444117 0  0.9924988599062848 0.7887715626383616 0  0.8674753477047706 0.6821390867986818 0  0.6993572585883594 0.9038049302516018 0  1.53924450853783 0.6818717864694561 0  1.27954362181495 0.818196911265721 0  2.885754890315292 0.65625 0  0.1199579452929171 0.84375 0  0.3101130847613819 0.7251157056441525 0  2.683488575489726 1.10528265125029 0  2.637912450120847 1.350340704724588 0  0.65625 1.387568746661148 0  2.204969505432462 0.7645924845263576 0  2.34230217156612 0.6870332922078795 0  2.458336421316689 0.930056573232228 0  1.547170662421109 0.4687109428674099 0  0.55426355401875 0.2785752421136156 0  1.927690911684502 0.7425770788416013 0  2.650983472818039 0.6639703826486528 0  0.2807744135836687 0.2731407085328489 0  2.697063502273202 0.4130460425434029 0  1.768721210125562 0.4985606178023466 0  1.59375 1.394491048145999 0  1.03125 1.39617417476255 0  2.649124789533757 0.9376608889715211 0  2.899345577629528 0.84375 0  2.448792339301353 1.151333513094988 0  2.455516477512143 0.7671738041202795 0  0.1479512725554237 1.367277900867101 0  1.733007556765436 0.6856365299097277 0  2.865 0 0  0.407900401917371 0.1920322062602331 0  1.482893533441057 0.9020086108979886 0  2.902194538181383 1.21875 0  2.860324471164851 1.360324471164851 0  0.9128790560808855 0.5311054613533476 0  0.7396036279203969 1.183264973390871 0  1.379392725427689 0.4456149894503371 0  0.8305263666170877 0.339868595109382 0  2.352639297837627 1.399880277695907 0  2.15625 1.5 0  2.32277762299786 1.203473773731512 0  1.818471673600783 0.235727380341035 0  1.269129800285538 0.3222823294390822 0  2.329228807632851 0.5297324129610972 0  0.430777275012463 0.469645907614299 0  1.390502090335328 0.1630587681988043 0  1.149408636841162 1.157447166816889 0  1.687853147042319 0.2519031106491252 0  0.3941048876243997 0.8956837842542459 0  1.877835046604575 0.410724628626283 0  1.348230251479045 0.6691802479050837 0  2.336954765206726 0.2613063289913201 0  2.514033953321691 1.393470229958569 0  0 0.46875 0  0.1287800079303892 0.5340043503292357 0  2.441328451749267 0.3721441168812449 0  0.9333932382689634 0.2670516659043625 0  1.13959172768211 0.5827503401695603 0  0.8703665929291606 1.395134656069543 0  1.240468926246127 0.9364063612525604 0  1.433475419570003 1.229904687600933 0  1.020534477629395 0.9101139083191684 0  1.108777781305164 0.7462713331880694 0  0.6468125623079457 0.6038935958199032 0  1.665312060212151 0.428962863572448 0  0.2512528931669099 0.5500044694745148 0  2.66971919386773 0.2450375495263612 0  2.901855502368762 0.2640467328343441 0  2.063534245742155 0.9373123558679215 0  2.031795413587333 0.1972457754676831 0  1.836924180675512 1.065887991891963 0  1.001601941364679 1.16852535211421 0  0.8051266927803291 0.9581030042697194 0  0.7620228346493961 0.7461373576581022 0  3 1.03125 0  2.084817260746984 1.176705869274554 0  2.085981885570153 0.5347538843754811 0  1.496744890324478 0.239335226969819 0  1.894594308711337 0.8570406362709689 0  1.78125 1.5 0  2.109375 1.394928085212741 0  2.71875 1.5 0  0.4943575340553394 1.217544978302146 0  0.5937185858435849 1.055241883498284 0  2.227680725187669 0.3075299344665331 0  0.5158109084499103 0.3891628929402524 0  1.96875 1.5 0  0.6036564600183
[...]
<PointData  Vectors="f_60"> 
<DataArray  type="Float64"  Name="f_60"  NumberOfComponents="3" format="ascii">-1.3420127967275674e-04 -2.4065669914829786e-04 0.0000000000000000e+00  6.6438805464053206e-05 5.3462621311356555e-05 0.0000000000000000e+00  5.1225718125156242e-05 5.7757926348547115e-05 0.0000000000000000e+00  1.0458189443832476e-04 1.1120860533009277e-04 0.0000000000000000e+00  6.1856512422701676e-04 6.7224657866744148e-04 0.0000000000000000e+00  4.7553336473629400e-04 6.4935846403937761e-04 0.0000000000000000e+00  -6.0653428945151207e-04 9.8084617782132131e-04 0.0000000000000000e+00  1.3253314169649162e-04 1.0323086313977789e-03 0.0000000000000000e+00  -6.8570782072533917e-04 6.6962330547459337e-04 0.0000000000000000e+00  5.8871545444714362e-04 -1.3633907196525276e-04 0.0000000000000000e+00  2.1835448769777485e-04 8.8639982604911394e-04 0.0000000000000000e+00  -2.6057207709296562e-04 1.7980380714508303e-03 0.0000000000000000e+00  4.0363431470006878e-04 2.9295090833147860e-04 0.0000000000000000e+00  1.7757761321174974e-04 2.6794668485235758e-04 0.0000000000000000e+00  1.9973074378762146e-04 3.2657121924763101e-04 0.0000000000000000e+00  -3.6136453519898754e-04 6.2055447862482765e-04 0.0000000000000000e+00  4.5053814429700105e-04 9.3327992065699267e-04 0.0000000000000000e+00  -2.0186350908394147e-04 7.0518991452354950e-04 0.0000000000000000e+00  -4.9751381498662608e-05 4.9415863418341473e-04 0.0000000000000000e+00  -3.3985873051292967e-04 6.7839843133604845e-04 0.0000000000000000e+00  -2.8125035577070671e-04 1.0476598630486701e-03 0.0000000000000000e+00  -1.7638756959981137e-04 4.7547589739485482e-04 0.0000000000000000e+00  -1.8268179009217492e-04 2.4128333681977971e-04 0.0000000000000000e+00  -4.0783536552476584e-04 7.9310393918813923e-04 0.0000000000000000e+00  1.7234067257947881e-04 1.3704539781834904e-03 0.0000000000000000e+00  3.1166884204543519e-04 6.1588462933623691e-04 0.0000000000000000e+00  -7.0619148099250613e-04 -5.5845939077274558e-05 0.0000000000000000e+00  1.1663594124168199e-04 7.3096391823644765e-04 0.0000000000000000e+00  -1.6631795920341738e-04 9.6716466672085557e-04 0.0000000000000000e+00  2.3994840762338329e-04 7.7013768411114756e-04 0.0000000000000000e+00  1.8633975666753296e-04 6.9820411655877187e-04 0.0000000000000000e+00  -5.8376088591763353e-04 1.0009124605868740e-03 0.0000000000000000e+00  -8.9072361345157725e-05 2.3801955009264154e-04 0.0000000000000000e+00  3.1372445682678565e-05 5.8953089002898465e-05 0.0000000000000000e+00  -4.7213866066855029e-04 3.0881195137104941e-04 0.0000000000000000e+00  -1.0799219995987095e-04 9.2538819286373840e-04 0.0000000000000000e+00  2.9939991089857857e-04 1.3312165847067675e-03 0.0000000000000000e+00  -4.6117116027090307e-04 2.2694030136112710e-04 0.0000000000000000e+00  9.9078471828703687e-05 4.6231804005495672e-04 0.0000000000000000e+00  -2.7168081664948687e-05 8.1031763402636609e-04 0.0000000000000000e+00  5.4846446922332320e-04 6.2352569854233161e-04 0.0000000000000000e+00  8.5655316080191239e-04 3.1786964499091807e-04 0.0000000000000000e+00  -6.3956048790075133e-04 8.3602430442788946e-04 0.0000000000000000e+00  -2.6048612638141351e-04 2.5638766137718854e-04 0.0000000000000000e+00  -1.3161550451482298e-04 7.3817113977015029e-05 0.0000000000000000e+00  -1.3424432531610980e-04 1.1054686685013652e-04 0.0000000000000000e+00  -9.9024662458617902e-05 4.1381720080912174e-04 0.0000000000000000e+00  -1.6929226288962175e-04 5.3380692530489743e-04 0.0000000000000000e+00  2.5204427571658415e-04 9.3724588627565884e-04 0.0000000000000000e+00  -3.6339367265721658e-05 9.1504098410623237e-04 0.0000000000000000e+00  8.6687784359915142e-04 3.6618034803517107e-04 0.0000000000000000e+00  4.7777778740509889e-04 3.4293629568136189e-04 0.0000000000000000e+00  -5.8671400999468250e-04 7.3788304843511513e-04 0.0000000000000000e+00  -2.8596814577777949e-04 3.4144828440328608e-04 0.0000000000000000e+00  2.2903381513948120e-05 7.4426472911316656e-05 0.0000000000000000e+00  3.6144939118874678e-04 3.0410668516663535e-04 0.0000000000000000e+00  6.0191896929679182e-04 7.6072487392247448e-04 0.0000000000000000e+00  3.4498721151517972e-04 7.9871218114940736e-04 0.0000000000000000e+00  -3.2871832918506959e-04 3.9845666285393683e-04 0.0000000000000000e+00  7.5184992909875891e-05 8.0026721289208494e-04 0.0000000000000000e+00  -1.5886787239150131e-04 3.5384768551533370e-04 0.0000000000000000e+00  2.4424351771871301e-04 1.9639089328218431e-04 0.0000000000000000e+00  7.4209127158953133e-05 1.3512905991101283e-03 0.0000000000000000e+00  3.5215235853815077e-04 4.4546881746163237e-04 0.0000000000000000e+00  2.4955708484484737e-04 1.0272955024187706e-04 0.0000000000000000e+00  -9.5269557104176876e-05 2.6975267968672878e-05 0.0000000000000000e+00  1.5380063030675739e-04 3.7350427202319648e-05 0.0000000000000000e+00  9.1680045055686813e-04 1.0566839780850894e-03 0.0000000000000000e+00  6.7018889606668174e-04 1.0246074353596891e-03 0.0000000000000000e+00  1.3014325544866692e-03 5.2891882975648538e-04 0.0000000000000000e+00  7.5541457823446979e-04 -6.0372781667791104e-04 0.0000000000000000e+00  8.2471202972803450e-04 -7.0909665773251644e-04 0.0000000000000000e+00  -2.1210927150866893e-03 1.0409215753720868e-03 0.0000000000000000e+00  4.1299380746569441e-04 5.6495082709825668e-04 0.0000000000000000e+00  8.7096334628626441e-04 -5.3616516505420231e-04 0.0000000000000000e+00  -9.6699537608223151e-03 1.5900673717000493e-03 0.0000000000000000e+00  -2.3847406385564250e-03 5.8033556212121781e-04 0.0000000000000000e+00  -5.1200438386762551e-06 9.2164519824193121e-06 0.0000000000000000e+00  2.9040929168264954e-04 -8.8320300176770845e-05 0.0000000000000000e+00  -1.2283881346308656e-04 -8.8489953920949473e-04 0.0000000000000000e+00  1.9671270582140615e-05 2.6078753087909433e-05 0.0000000000000000e+00  2.3664355034889501e-04 9.6033030471048310e-04 0.0000000000000000e+00  1.7760130467241541e-04 7.1477621681670183e-04 0.0000000000000000e+00  -3.0213742567259603e-04 -2.3754639295594463e-04 0.0000000000000000e+00  4.8026789755387996e-06 -2.3675096355569458e-04 0.0000000000000000e+00  -3.8300790913104468e-04 4.7711976648675475e-01 0.0000000000000000e+00  4.1197708878678768e-02 1.3258878370606857e+00 0.0000000000000000e+00  -1.7414613858476483e-02 1.0182555546238006e+00 0.0000000000000000e+00  3.2275556831661711e-01 -1.0573476838948703e+00 0.0000000000000000e+00  -2.1405492411262445e-01 9.0921690446279324e-01 0.0000000000000000e+00  -9.6488895799188971e-04 -1.0085945129776617e+00 0.0000000000000000e+00  5.1390571364813266e-02 -1.6956475346185986e+00 0.0000000000000000e+00  6.9169848808476667e-03 -1.6871379639207642e+00 0.0000000000000000e+00  4.1799291221280951e-06 -8.8293947641191069e-04 0.0000000000000000e+00  6.4138044949402534e-02 2.7500993525645007e-01 0.0000000000000000e+00  7.3345721583443547e-05 -8.4890564098326164e-04 0.0000000000000000e+00  -3.5133298305193874e-06 -1.1276263315428178e-05 0.0000000000000000e+00  -4.5497072869824058e-03 -9.9158369427636197e-04 0.0000000000000000e+00  -1.3264423555579163e-04 -9.0217836784377932e-04 0.0000000000000000e+00  1.6432829505689177e-03 7.4667189529686428e-05 0.0000000000000000e+00  6.6805593634566764e-04 -4.0289869205012749e-04 0.0000000000000000e+00  5.4135206483398909e-02 1.0666304091502550e+00 0.0000000000000000e+00  -8.1743835832938705e-02 1.6313831191313564e+00 0.0000000000000000e+00  -8.6725106557677969e-02 -8.6661366799239403e-01 0.0000000000000000e+00  1.7443450840189528e-01 -4.8852002938472988e-01 0.0000000000000000e+00  -6.2847771293881471e-02 -1.2809307426673009e+00 0.0000000000000000e+00  3.9091644944321199e-02 -1.1187992549243327e-01 0.0000000000000000e+00  3.9902420711181563e-03 4.5622136997780000e-01 0.0000000000000000e+00  2.8721373680576801e-03 1.3957556118993291e+00 0.0000000000000000e+00  -6.3983857031052208e-02 1.2092089717116636e+00 0.0000000000000000e+00  1.8695748890637492e-02 3.2044917465855194e-02 0.0000000000000000e+00  -3.8691285653548935e-01 1.2547436208517708e+00 0.0000000000000000e+00  -9.9321142778445712e-02 1.7045369435322162e+00 0.0000000000000000e+00  4.6406337252235735e-01 1.9520666797307280e+00 0.0000000000000000e+00  3.2539260548901372e-01 6.9203723301050191e-01 0.0000000000000000e+00  9.5040099534894298e-02 1.0387034036649110e+00 0.0000000000000000e+00  9.9789301594972690e-01 2.4234993776741502e+00 0.0000000000000000e+00  1.4728600296633612e-01 -1.1770779643968470e+00 0.0000000000000000e+00  2.5733551225576317e-04 -7.2342937040311697e-04 0.0000000000000000e+00  -5.1600541018933965e-02 7.8590549740070625e-01 0.0000000000000000e+00  1.8545400768262513e-02 1.8406365664127966e+00 0.0000000000000000e+00  3.5599777953903081e-02 -3.4761664994146774e-01 0.0000000000000000e+00  -1.0448400290007435e-01 -7.6991082069755323e-01 0.0000000000000000e+00  4.5570429443559185e-02 -1.4746969116585951e+00 0.0000000000000000e+00  -7.6658303854627906e-04 -7.0689974785198475e-04 0.0000000000000000e+00  -6.2199515219888102e-01 -7.5180404413997060e-01 0.0000000000000000e+00  -2.7034021561916760e-01 2.9774583978140340e-01 0.0000000000000000e+00  4.9588334391609881e-02 7.9610993343413128e-01 0.0000000000000000e+00  -2.3617469645729250e-02 1.4158148350914523e+00 0.0000000000000000e+00  7.3811684404146399e-02 -1.0037241490208844e+00 0.0000000000000000e+00  2.6221293099244048e-04 -7.5164554468750181e-04 0.0000000000000000e+00  4.0223188659572175e-02 -7.8406168923602082e-01 0.0000000000000000e+00  2.6269448250720383e-02 1.2216908406551794e+00 0.0000000000000000e+00  -1.0663967976435543e-02 -1.2479912081740701e+00 0.0000000000000000e+00  -1.0389596600416860e-01 -1.3262890196464845e+00 0.0000000000000000e+00  -1.0774231002736858e+00 -6.1531958345517813e-02 0.0000000000000000e+00  8.8069051737619150e-06 3.9790377184922085e-06 0.0000000000000000e+00  8.5060028149577083e-02 -5.2794969321990670e-01 0.0000000000000000e+00  -1.8499535036419382e-01 1.8540259722424863e+00 0.0000000000000000e+00  5.6767449605688285e-05 -1.6345618070455776e-04 0.0000000000000000e+00  7.6168546569947121e-02 1.1487385766098670e+00 0.0000000000000000e+00  3.7660172063697504e-02 5.2196571120705226e-01 0.0000000000000000e+00  -1.5099545013132895e-02 9.9475223915834710e-01 0.0000000000000000e+00  5.6432807163431437e-04 -9.2592953084411208e-04 0.0000000000000000e+00  4.0913948193814463e-02 -1.2039335141449625e+00 0.0000000000000000e+00  -3.4980107468652960e-02 -1.6560815993568345e+00 0.0000000000000000e+00  3.5946680739980898e-02 -1.5640196667355584e+00 0.0000000000000000e+00  1.2489887624194131e-01 4.7921482140864557e-01 0.0000000000000000e+00  2.6406739550366078e-02 1.7509668498720421e+00 0.0000000000000000e+00  3.5657755753582640e-02 -1.8255762495583101e+00 0.0000000000000000e+00  7.9276849499046120e-02 1.1228671314267027e+00 0.0000000000000000e+00  -1.3629472346630903e-01 -1.3586841786849633e+00 0.0000000000000000e+00  -3.5613386708113523e-02 -1.2420636664321727e+00 0.0000000000000000e+00  -1.8383678283874268e-02 1.3254306128320132e+00 0.0000000000000000e+00  1.3304197777985183e-03 -6.7443213710773970e-05 0.0000000000000000e+00  5.3381829249341038e-04 -9.6864039801751781e-04 0.0000000000000000e+00  -4.4066286203740687e-04 -6.5274784871037852e-04 0.0000000000000000e+00  -1.5001344934435529e-03 -4.5806759172767743e-04 0.0000000000000000e+00  -3.8122748734197720e-04 -5.5319828175147748e-04 0.0000000000000000e+00  1.0218340555348415e-05 -6.2024147930388696e-07 0.0000000000000000e+00  1.5053675306161106e-03 -1.2184861711743879e-04 0.0000000000000000e+00  2.5149236514600314e-03 -8.2595955155033614e-04 0.0000000000000000e+00  -6.5316697556622467e-03 -1.9845142540130213e-03 0.0000000000000000e+00  -7.4165562465548021e-02 6.2640591781972554e-01 0.0000000000000000e+00  -1.2208703571388023e-02 -1.3634171744787793e+00 0.0000000000000000e+00  -2.5110693035992723e-02 -2.3941331100548338e-01 0.0000000000000000e+00  -1.1991802165523632e-01 -1.7180137064541787e+00 0.0000000000000000e+00  -9.6892027741462129e-04 7.2557994975206385e-04 0.0000000000000000e+00  -3.6852759285399002e-02 -1.7571872649451343e+00 0.0000000000000000e+00  1.1293720624276212e-02 -8.0831317453917184e-01 0.0000000000000000e+00  9.5498175705381785e-02 7.7817075352937554e-02 0.0000000000000000e+00  2.4864083719681421e-01 1.4250776087094961e+00 0.0000000000000000e+00  2.4764468780195042e-01 -1.6052516711950002e+00 0.0000000000000000e+00  -2.6620819480263798e-02 5.1086950483915350e-01 0.0000000000000000e+00  1.2493440539943014e-01 4.2482667437802968e-01 0.0000000000000000e+00  -1.2520607775971868e-01 -1.5453628484645392e+00 0.0000000000000000e+00  -2.1056514926085915e-01 -5.3222427634764669e-01 0.0000000000000000e+00  -1.4397219313398021e-01 1.5999095489157469e+00 0.0000000000000000e+00  -1.5837016460063588e-01 5.7332894304509663e-01 0.0000000000000000e+00  1.0312426962169696e-01 1.3361972926445160e+00 0.0000000000000000e+00  -6.9236327138725531e-02 1.4936083645579517e+00 0.0000000000000000e+00  -4.6577443789662387e-02 1.3990215328742006e+00 0.0000000000000000e+00  -6.4143840971833815e-03 -1.3150057648777391e+00 0.0000000000000000e+00  -4.1875884674274708e-02 -1.2882912371816500e+00 0.0000000000000000e+00  -1.5559657509537903e+00 -2.1072871439126201e-01 0.0000000000000000e+00  8.6746093783704459e-02 -8.2318316479911635e-01 0.0000000000000000e+00  5.5988381828388312e-01 -1.1915028681055144e+00 0.0000000000000000e+00  -2.3750213277769643e-02 9.4058363777453768e-01 0.0000000000000000e+00  2.0773293819442446e-02 1.2894479308666700e+00 0.0000000000000000e+00  -3.6660443314101850e-02 1.6164945733510760e+00 0.0000000000000000e+00  -6.5289920528122292e-01 2.3286196312313595e-01 0.0000000000000000e+00  6.5657985456419155e-01 -1.4298582466555695e-01 0.0000000000000000e+00  -4.0832320454645611e-02 1.7796250435087864e+00 0.0000000000000000e+00  1.0291595972845557e-01 -1.2297611693972432e+00 0.0000000000000000e+00  6.4582735436335262e-02 -1.1777318956925555e+00 0.0000000000000000e+00  -1.0993717527557176e-01 1.3517735210352166e+00 0.0000000000000000e+00  -3.6533237002647140e-01 6.1059249029047047e-01 0.0000000000000000e+00  -7.8417357776463426e-01 -8.7383670567591928e-02 0.0000000000000000e+00  8.7573263386592409e-02 -1.5970718402256907e+00 0.0000000000000000e+00  5.6128187960143905e-02 -6.7648809077676142e-01 0.0000000000000000e+00  1.9113357285169236e-02 -6.1328219923942062e-01 0.0000000000000000e+00  3.0352183392785576e-02 1.3714714269138994e+00 0.0000000000000000e+00  2.5353571813442589e-04 -8.9236041948045797e-01 0.0000000000000000e+00  1.7468566701420111e-02 1.3134523540295939e+00 0.0000000000000000e+00  1.1483468334336592e-02 -1.1327198859916413e-01 0.0000000000000000e+00  -2.5433328748687251e-01 3.6014575578343661e-01 0.0000000000000000e+00  1.1508463138850650e-02 -1.5280588561772019e+00 0.0000000000000000e+00  2.6753872852578874e-02 1.7133933313595453e+00 0.0000000000000000e+00  6.5069786389563899e-01 2.3585959142974513e+00 0.0000000000000000e+00  7.4055107787919328e-01 1.6217865432024345e-01 0.0000000000000000e+00  4.3166686333069727e-02 5.2829042051897224e-01 0.0000000000000000e+00  -7.9602700972950108e-03 -6.4558373168315986e-01 0.0000000000000000e+00  -3.7116611876891289e-02 1.2054506378789915e+00 0.0000000000000000e+00  1.9734059131872500e-01 1.4150002589792126e+00 0.0000000000000000e+00  2.0814156754379028e-02 1.0513136845695725e+00 0.0000000000000000e+00  1.6332199711078382e-01 7.9043956145306959e-01 0.0000000000000000e+00  -4.6243329414866639e-03 -1.3773913396712063e+00 0.0000000000000000e+00  -1.0615832294191599e-01 2.0299170748015776e+00 0.0000000000000000e+00  1.9807017852023598e-01 1.5802225778443793e+00 0.0000000000000000e+00  -5.6773831985633105e-01 2.6075602901674300e+00 0.0000000000000000e+00  -1.3271786411915766e-02 1.5417746870196551e+00 0.0000000000000000e+00  1.4172079440266216e-01 -5.9246575565721915e-01 0.0000000000000000e+00  -7.8808223787997775e-02 -1.5010089439381287e+00 0.0000000000000000e+00  3.1600270595997415e-01 1.5944017392831313e+00 0.0000000000000000e+00  1.4594054139131540e-01 4.8387790770283140e-01 0.0000000000000000e+00  3.9476901387934316e-01 1.7090132858280058e+00 0.0000000000000000e+00  2.1264115210323568e-02 1.3913478817760374e+00 0.0000000000000000e+00  -7.8308673723596886e-02 -1.7014876979477480e+00 0.0000000000000000e+00  9.6960501327472276e-03 4.2286882267708259e-01 0.0000000000000000e+00  7.1010562035848327e-04 5.8589887131782942e-05 0.0000000000000000e+00  4.1013550252690718e-02 -9.7360115926844126e-01 0.0000000000000000e+00  -1.4173188740759614e-03 1.7503842814816941e+00 0.0000000000000000e+00  1.0576422356334931e+00 -3.2759224979240409e-01 0.0000000000000000e+00  1.5213797458495446e+00 -7.3462921235535106e-01 0.0000000000000000e+00  4.8699092530416245e-02 1.7419784966989535e+00 0.0000000000000000e+00  -6.9362281140995449e-02 -1.7661530791178708e+00 0.0000000000000000e+00  6.1429804422236604e-02 -1.4543674999636813e+00 0.0000000000000000e+00  4.3682015775132588e-02 1.5791108763236830e-01 0.0000000000000000e+00  7.3254137256772031e-02 7.5100067483185873e-01 0.0000000000000000e+00  7.0388743401380996e-04 -9.0590866960178469e-04 0.0000000000000000e+00  2.9508455416020196e-01 -4.0569342807797157e-02 0.0000000000000000e+00  -1.1779921788007658e-01 1.5862625154091994e+00 0.0000000000000000e+00  9.7359774736808069e-02 3.2843768397231310e-01 0.0000000000000000e+00  -1.7240995141110860e-01 7.7059312716586004e-01 0.0000000000000000e+00  1.0753442359291290e-01 -1.6489282087796790e+00 0.0000000000000000e+00  1.8888220346968523e-01 -1.2148715524336844e+00 0.0000000000000000e+00  -7.4479614556258927e-02 9.4648096558161499e-01 0.0000000000000000e+00  7.9083073135960968e-02 -1.1175375203671714e+00 0.0000000000000000e+00  8.2344682274911197e-03 -7.3467271749958007e-01 0.0000000000000000e+00  -6.7362120091946670e-02 -2.0791237703483095e-02 0.0000000000000000e+00  3.6973390392335194e-02 -1.7380420410946156e+00 0.0000000000000000e+00  -2.6553633532981230e-01 9.1040194359229643e-01 0.0000000000000000e+00  8.4734288576040850e-01 -5.8489621148450455e-01 0.0000000000000000e+00  -5.2501050344482636e-06 2.2130746523311751e-05 0.0000000000000000e+00  4.5352006427804049e-02 -1.6464073032003141e+00 0.0000000000000000e+00  -4.3051160758341783e-01 1.2632598437770981e+00 0.0000000000000000e+00  -2.9772008727932786e-02 1.3754342547626210e+00 0.0000000000000000e+00  4.5887321915672206e-02 5.2038221369894355e-01 0.0000000000000000e+00  -2.8465996245872133e-01 1.2876439838806475e+00 0.0000000000000000e+00  -1.6295008433483454e-02 1.2199233266878118e+00 0.0000000000000000e+00  -7.6604755893530913e-02 4.0877680166506175e-01 0.0000000000000000e+00  -1.4517897676479862e-03 -1.4513641814693978e+00 0.0000000000000000e+00  2.5762702656172615e-02 -5.9696640451941207e-01 0.0000000000000000e+00  4.8283421117352829e-02 1.0034457982183811e+00 0.0000000000000000e+00  -5.5111196857955116e-03 -1.6164885903389528e+00 0.0000000000000000e+00  5.6426427269675471e-02 8.5793485593468244e-01 0.0000000000000000e+00  -9.2247182977739339e-01 2.3007986761201034e+00 0.0000000000000000e+00  -1.2286567552100183e+00 1.5977046028878163e+00 0.0000000000000000e+00  8.0611548519949380e-02 1.5295896887586293e+00 0.0000000000000000e+00  3.3141990872323640e-02 3.8611710091523721e-01 0.0000000000000000e+00  2.8786702477945958e-02 1.4524487510855530e+00 0.0000000000000000e+00  -7.0101867173951754e-02 -9.9508602583969685e-01 0.0000000000000000e+00  -1.7315273826190802e-02 -7.1008657730895819e-01 0.0000000000000000e+00  3.1682255397824183e-02 -1.7532164224634357e+00 0.0000000000000000e+00  1.4085003286512638e-03 1.2600141797216563e-04 0.0000000000000000e+00  1.2610782048164945e-01 1.8764834148276364e+00 0.0000000000000000e+00  -7.0274660221359267e-02 1.9946975385637680e+00 0.0000000000000000e+00  -5.2539581097591569e-02 1.6914811800799230e+00 0.0000000000000000e+00  1.9801719375697378e-02 -4.9549249909771687e-01 0.0000000000000000e+00  -1.6928871982271760e-04 -7.5033414662032587e-04 0.0000000000000000e+00  1.5373793969561331e-01 1.5814701573587535e+00 0.00000000000000