<?xml version="1.0"?>
<VTKFile type="UnstructuredGrid"  version="0.1"  >
<UnstructuredGrid>
<Piece  NumberOfPoints="4978" NumberOfCells="9630">
<Points>
<DataArray  type="Float64"  NumberOfComponents="3"  format="ascii">0 1.5 0  0 0 0  0.06190941752361886 0 0  0.06190941752361886 0.02304324263930277 0  0.07687367483109155 0.06663263502519032 0  0.1051805799723963 0.1030013474942385 0  0.1437626405485843 0.128208265731708 0  0.1884388916338735 0.1395218290209338 0  0.2343679681997119 0.1357160372315063 0  0.2765727421371398 0.117203306956754 0  0.3104796713154951 0.0859897797765535 0  0.3324144138380889 0.04545792568865569 0  0.34 0 0  0.4722134970410927 0 0  0.4722134970410927 0.02388743731615415 0  0.4894717723551502 0.0684361811740563 0  0.5216574972706967 0.1037422395464312 0  0.5644238112906292 0.1250373336124665 0  0.6119948867302293 0.1294454429183545 0  0.6579459862509499 0.1163712278761581 0  0.6960711592386857 0.08758043367405244 0  0.7212213898225662 0.04696141660432988 0  0.73 0 0  0.85 0 0  0.857341522555727 0.04635254915624212 0  0.8786474508437579 0.08816778784387098 0  0.9118322121561291 0.1213525491562421 0  0.9536474508437579 0.142658477444273 0  1 0.15 0  1.046352549156242 0.142658477444273 0  1.088167787843871 0.1213525491562421 0  1.121352549156242 0.08816778784387097 0  1.142658477444273 0.04635254915624211 0  1.15 0 0  1.461909417523619 0 0  1.461909417523619 0.02304324263930277 0  1.476873674831092 0.06663263502519032 0  1.505180579972396 0.1030013474942385 0  1.543762640548584 0.128208265731708 0  1.588438891633874 0.1395218290209338 0  1.634367968199712 0.1357160372315063 0  1.67657274213714 0.117203306956754 0  1.710479671315495 0.0859897797765535 0  1.732414413838089 0.04545792568865569 0  1.74 0 0  1.78 0 0  1.789134456098646 0.04592201188381079 0  1.815147186257614 0.08485281374238571 0  1.854077988116189 0.1108655439013544 0  1.9 0.12 0  1.945922011883811 0.1108655439013544 0  1.984852813742386 0.08485281374238569 0  2.010865543901355 0.04592201188381077 0  2.02 0 0  2.161909417523619 0 0  2.161909417523619 0.02304324263930277 0  2.176873674831092 0.06663263502519032 0  2.205180579972396 0.1030013474942385 0  2.243762640548584 0.128208265731708 0  2.288438891633873 0.1395218290209338 0  2.334367968199712 0.1357160372315063 0  2.37657274213714 0.117203306956754 0  2.410479671315495 0.0859897797765535 0  2.432414413838089 0.04545792568865569 0  2.44 0 0  2.472213497041093 0 0  2.472213497041093 0.02388743731615415 0  2.48947177235515 0.0684361811740563 0  2.521657497270697 0.1037422395464312 0  2.564423811290629 0.1250373336124665 0  2.611994886730229 0.1294454429183545 0  2.65794598625095 0.1163712278761581 0  2.696071159238686 0.08758043367405244 0  2.721221389822567 0.04696141660432988 0  2.73 0 0  3 0 0  3 1.5 0  0 0.75 0  3 0.75 0  1.5 1.5 0  0 0.375 0  0 0.1875 0  0 0.09375 0  0.75 1.5 0  2.25 1.5 0  1.137279452465634 0.8667483509386543 0  2.055384907633385 0.8149748422668953 0  0.5545701656450307 0.9454298343549693 0  2.545804583542266 1.045804583542266 0  2.462951104370831 0.5854482317237805 0  1.6063536999151 1.018574336065804 0  0.7683179692414909 0.5511078775270282 0  1.647896012796697 0.5780189144999826 0  1.875 1.5 0  0.3683226130580748 0.5893782185394094 0  0.375 1.5 0  0 1.125 0  3 0.375 0  1.125 1.5 0  3 1.125 0  2.625 1.5 0  1.247216233241016 0.4851891764902285 0  0.8779404074027722 1.143194262378568 0  1.992337703792022 0.4642129848858538 0  2.200035536160075 1.144037289792772 0  1.3125 1.206118267007311 0  1.882280687299076 1.18026905614258 0  0.8375010042452264 0.8437030129736524 0  0.2703628106324028 0.8673582108832857 0  0.336944444033578 1.181320038574892 0  1.424720841531434 0.7792108746582741 0  2.763716218670896 0.5625 0  0.6112325230261646 1.216037756380734 0  2.429292395855053 1.293345775631689 0  2.798691155259055 0.9375 0  2.340750225085827 0.8450755885956063 0  2.74506315455788 1.24506315455788 0  0.4115012634770826 0.3359864655288552 0  1.6875 1.5 0  1.553212834656815 1.259295117559057 0  1.783849920010049 0.8130750647527071 0  2.590242300399914 0.800172794523538 0  2.206538789959823 0.6067588023913982 0  1.022769083327432 0.627137676743421 0  2.0625 1.5 0  2.566013274303806 0.3667751817948443 0  2.317230353528816 0.3853650267397287 0  0.9546600707351991 0.3912757388497677 0  1.76490060939521 0.3540000691256479 0  1.398169292756645 0.3089248951275104 0  0.1875 1.5 0  0.6961815191548208 0.3380429757712475 0  0.6390751493076395 0.7361434669345621 0  1.385952842918209 0.9972233609662619 0  1.082019261833385 1.265823315390121 0  2.784258672215756 0.3048233224522298 0  0 0.5625 0  0.2130557952202133 0.4325455696870932 0  2.110276358430479 0.2903936515686117 0  0 1.3125 0  0.5618175915722093 0.5022778936897083 0  1.438605690073396 0.5702366817214194 0  1.851778102902867 0.6169409446553686 0  0.9375 1.5 0  1.918499765346388 0.9737703250858507 0  1.066617221574711 1.060327143126178 0  0.17830064634795 0.65625 0  1.139464543633635 0.3182162642668528 0  1.214887260891528 0.6824917486258804 0  0.4470960700565646 0.7803305254813445 0  2.056073894593081 1.292965518236122 0  0.7800417460951754 1.309431349558015 0  0.7102942521579887 1.054059105222724 0  2.772203778896419 0.7508393899039921 0  3 0.9375 0  2.4375 1.5 0  0.5625 1.5 0  3 0.5625 0  1.3125 1.5 0  0 0.9375 0  3 1.3125 0  2.8125 1.5 0  3 0.1875 0  1.74009613212014 1.312845810865967 0  0.1858279553328271 1.04932632064409 0  1.582414108002925 0.3243096672004901 0  0.4576542986122824 1.328517530191622 0  1.30595470876181 0 0  0.1616828829631953 1.229471150973137 0  1.600689448835705 0.8342777580615786 0  2.184954406689295 0.9543424310663166 0  2.356848459734244 1.033731425282726 0  2.249618867339344 1.318565528322325 0  2.031012140730151 0.6383085966483963 0  1.264473591492607 0.1926369230867345 0  1.93294708275428 0.2969945700235964 0  1.406271966518558 1.353045118606616 0  0.2855042944080262 1.351202341158466 0  2.163692386827529 0.4469681835123645 0  2.058709899218631 1.05982604745508 0  1.21875 1.361760465218127 0  1.232585115983139 1.060656719142284 0  1.682328919476849 1.161572426192166 0  0.4864612871934715 1.100927295036068 0  2.842393003195402 0.1547034389615206 0  1.901710724058898 1.340659870484523 0  2.578488906869203 1.212378831230944 0  0.346730023619794 1.013455011579226 0  1.758789788261688 0.970834021568154 0  0.9209577900333827 0.984909924281538 0  2.461973640748163 0.2490632223012221 0  2.833434714842781 1.102015011431888 0  1.485476187845101 1.118115752354218 0  0.7869575052851041 0.2127716822913992 0  1.091585464669657 0.4673676525872368 0  0.9308375558444295 1.286291202675726 0  2.609275627299536 0.5207885309723005 0  2.859418780372727 0.4404724026784034 0  0.1368795735450182 0.2913992261536034 0  0.5088670694303536 0.6431238265444117 0  0.9924988599062848 0.7887715626383616 0  0.8674753477047706 0.6821390867986818 0  0.6993572585883594 0.9038049302516018 0  1.53924450853783 0.6818717864694561 0  1.27954362181495 0.818196911265721 0  2.885754890315292 0.65625 0  0.1199579452929171 0.84375 0  0.3101130847613819 0.7251157056441525 0  2.683488575489726 1.10528265125029 0  2.637912450120847 1.350340704724588 0  0.65625 1.387568746661148 0  2.204969505432462 0.7645924845263576 0  2.34230217156612 0.6870332922078795 0  2.458336421316689 0.930056573232228 0  1.547170662421109 0.4687109428674099 0  0.55426355401875 0.2785752421136156 0  1.927690911684502 0.7425770788416013 0  2.650983472818039 0.6639703826486528 0  0.2807744135836687 0.2731407085328489 0  2.697063502273202 0.4130460425434029 0  1.768721210125562 0.4985606178023466 0  1.59375 1.394491048145999 0  1.03125 1.39617417476255 0  2.649124789533757 0.9376608889715211 0  2.899345577629528 0.84375 0  2.448792339301353 1.151333513094988 0  2.455516477512143 0.7671738041202795 0  0.1479512725554237 1.367277900867101 0  1.733007556765436 0.6856365299097277 0  2.865 0 0  0.407900401917371 0.1920322062602331 0  1.482893533441057 0.9020086108979886 0  2.902194538181383 1.21875 0  2.860324471164851 1.360324471164851 0  0.9128790560808855 0.5311054613533476 0  0.7396036279203969 1.183264973390871 0  1.379392725427689 0.4456149894503371 0  0.8305263666170877 0.339868595109382 0  2.352639297837627 1.399880277695907 0  2.15625 1.5 0  2.32277762299786 1.203473773731512 0  1.818471673600783 0.235727380341035 0  1.269129800285538 0.3222823294390822 0  2.329228807632851 0.5297324129610972 0  0.430777275012463 0.469645907614299 0  1.390502090335328 0.1630587681988043 0  1.149408636841162 1.157447166816889 0  1.687853147042319 0.2519031106491252 0  0.3941048876243997 0.8956837842542459 0  1.877835046604575 0.410724628626283 0  1.348230251479045 0.6691802479050837 0  2.336954765206726 0.2613063289913201 0  2.514033953321691 1.393470229958569 0  0 0.46875 0  0.1287800079303892 0.5340043503292357 0  2.441328451749267 0.3721441168812449 0  0.9333932382689634 0.2670516659043625 0  1.13959172768211 0.5827503401695603 0  0.8703665929291606 1.395134656069543 0  1.240468926246127 0.9364063612525604 0  1.433475419570003 1.229904687600933 0  1.020534477629395 0.9101139083191684 0  1.108777781305164 0.7462713331880694 0  0.6468125623079457 0.6038935958199032 0  1.665312060212151 0.428962863572448 0  0.2512528931669099 0.5500044694745148 0  2.66971919386773 0.2450375495263612 0  2.901855502368762 0.2640467328343441 0  2.063534245742155 0.9373123558679215 0  2.031795413587333 0.1972457754676831 0  1.836924180675512 1.065887991891963 0  1.001601941364679 1.16852535211421 0  0.8051266927803291 0.9581030042697194 0  0.7620228346493961 0.7461373576581022 0  3 1.03125 0  2.084817260746984 1.176705869274554 0  2.085981885570153 0.5347538843754811 0  1.496744890324478 0.239335226969819 0  1.894594308711337 0.8570406362709689 0  1.78125 1.5 0  2.109375 1.394928085212741 0  2.71875 1.5 0  0.4943575340553394 1.217544978302146 0  0.5937185858435849 1.055241883498284 0  2.227680725187669 0.3075299344665331 0  0.5158109084499103 0.3891628929402524 0  1.96875 1.5 0  0.6036564600183
[...]
<PointData  Vectors="f_60"> 
<DataArray  type="Float64"  Name="f_60"  NumberOfComponents="3" format="ascii">-1.5295765396141953e-04 -2.9965279916245694e-04 0.0000000000000000e+00  1.0024802175714275e-04 1.4713441073224055e-04 0.0000000000000000e+00  3.1972695030817314e-05 1.1976683176489846e-04 0.0000000000000000e+00  7.2111410994256221e-05 1.5151159836739511e-04 0.0000000000000000e+00  3.5845584506620292e-04 2.7173506206203119e-04 0.0000000000000000e+00  1.9015502035852228e-04 2.1405062836645690e-04 0.0000000000000000e+00  -1.9157471698113542e-04 5.4296209785589431e-04 0.0000000000000000e+00  2.2173446710512586e-04 5.3008642339498707e-04 0.0000000000000000e+00  -1.6128929259322610e-04 2.2032699432493255e-04 0.0000000000000000e+00  1.4472284881084126e-04 -4.2269706151950964e-05 0.0000000000000000e+00  -3.1532720185482867e-05 2.2979210353224307e-04 0.0000000000000000e+00  -9.5433943946043881e-05 7.4422414825150594e-04 0.0000000000000000e+00  3.7376509181566626e-04 2.2080854114846316e-04 0.0000000000000000e+00  1.4334276681791938e-04 2.6193485791042035e-04 0.0000000000000000e+00  4.1673693453075106e-05 2.7144946687634211e-04 0.0000000000000000e+00  -2.2265298335260965e-04 3.8718209415156661e-04 0.0000000000000000e+00  2.5460510095811804e-04 5.8466968509451195e-04 0.0000000000000000e+00  -5.7662586187049365e-05 1.4224632879314560e-04 0.0000000000000000e+00  2.6630474264560679e-05 1.6768301393437217e-04 0.0000000000000000e+00  -2.7348572476336343e-04 3.9442601054374683e-04 0.0000000000000000e+00  -5.2093935657307510e-05 5.7264982989022636e-04 0.0000000000000000e+00  1.7705283358911737e-05 2.4072672140808591e-04 0.0000000000000000e+00  -1.1839947741589167e-04 2.6707255380341972e-04 0.0000000000000000e+00  -2.0932240907667020e-04 6.0813599387089193e-04 0.0000000000000000e+00  1.6586352755449488e-05 7.8138368115004075e-04 0.0000000000000000e+00  1.6983559935704131e-04 1.4688272661736299e-04 0.0000000000000000e+00  -1.7159685469873682e-04 -5.3123319000083340e-05 0.0000000000000000e+00  -1.7342755430113437e-05 3.4690919781333885e-04 0.0000000000000000e+00  -1.8989443622075488e-04 4.3613995293505703e-04 0.0000000000000000e+00  1.8330545616203071e-04 3.7727044220821094e-04 0.0000000000000000e+00  1.1309684995169371e-04 1.6130174942299321e-04 0.0000000000000000e+00  -2.3423098149928933e-04 2.2679214376812137e-04 0.0000000000000000e+00  -9.2350457861890568e-05 9.4128574323286849e-05 0.0000000000000000e+00  -8.9015184096612257e-06 2.6478242392217354e-05 0.0000000000000000e+00  -3.1935104074570591e-04 3.4164316337541734e-04 0.0000000000000000e+00  -8.2949017907976285e-05 5.3116413718501442e-04 0.0000000000000000e+00  1.8559749178536912e-04 5.0722602503073296e-04 0.0000000000000000e+00  -1.2037262017421464e-04 2.3016192845968162e-05 0.0000000000000000e+00  5.4884235505004744e-05 2.1842443744210348e-04 0.0000000000000000e+00  -9.4790670768302060e-05 3.7879916196048867e-04 0.0000000000000000e+00  3.4352115670594749e-04 3.7648096854437995e-04 0.0000000000000000e+00  5.7866855989107649e-04 1.1311818323834400e-04 0.0000000000000000e+00  -3.2287535213468141e-04 2.0751962819959304e-04 0.0000000000000000e+00  -1.7804676504914118e-04 1.9881502080983188e-04 0.0000000000000000e+00  -1.3265485997617879e-04 1.4726949226972076e-04 0.0000000000000000e+00  -7.1083226361105407e-05 1.5644478089472621e-04 0.0000000000000000e+00  -2.9036883127705026e-05 2.4546146592881732e-04 0.0000000000000000e+00  7.4781192515166233e-06 1.7630969088921217e-04 0.0000000000000000e+00  4.8412775175575376e-06 2.8785144963388714e-04 0.0000000000000000e+00  -1.9504893017572360e-04 4.2375732655253005e-04 0.0000000000000000e+00  5.3333438788769701e-04 2.1493078936892629e-04 0.0000000000000000e+00  4.1253845443974500e-04 3.4321173197590532e-05 0.0000000000000000e+00  -3.0813698092926748e-04 2.4663989636292355e-04 0.0000000000000000e+00  -4.5363742771335065e-05 3.8364840537117738e-04 0.0000000000000000e+00  3.8717126718241473e-05 6.9491671855285059e-05 0.0000000000000000e+00  1.8718142726643455e-04 1.1708465981825325e-04 0.0000000000000000e+00  2.7566483193071394e-04 2.1336389952942769e-04 0.0000000000000000e+00  1.2401493223211080e-04 2.3743139777605867e-04 0.0000000000000000e+00  -2.9388465774192707e-04 1.0973996188360925e-04 0.0000000000000000e+00  2.9092124300811626e-04 3.9799658599926237e-04 0.0000000000000000e+00  4.3441591375280329e-05 2.4738506473135328e-04 0.0000000000000000e+00  -3.9058544513660687e-05 1.1671834626690725e-04 0.0000000000000000e+00  -2.1010582387496658e-04 8.2692173865287020e-04 0.0000000000000000e+00  -8.6542165986736006e-05 5.3553627156245349e-04 0.0000000000000000e+00  1.6266767288036267e-04 2.1466863987322024e-04 0.0000000000000000e+00  1.1663495846498818e-04 9.0420676566374246e-05 0.0000000000000000e+00  1.4873337866349169e-04 1.8590341530512114e-04 0.0000000000000000e+00  6.8721587652897909e-04 7.4183451864537407e-04 0.0000000000000000e+00  3.9345529232446392e-04 2.4302243990512862e-04 0.0000000000000000e+00  3.0750944888800617e-04 1.5006671713613663e-04 0.0000000000000000e+00  2.9782030173592641e-04 -3.3361062835190509e-05 0.0000000000000000e+00  2.6714809950622394e-04 -5.2925755459664464e-04 0.0000000000000000e+00  -7.1555162707477961e-04 -1.3778515736966889e-04 0.0000000000000000e+00  -1.0584327803389699e-04 1.6532614334182783e-03 0.0000000000000000e+00  1.1964868274959108e-03 1.3116941636416354e-03 0.0000000000000000e+00  -1.2340586407213685e-02 -8.4045357727012494e-04 0.0000000000000000e+00  1.5301371314997681e-03 4.9503032528462609e-04 0.0000000000000000e+00  -5.0465218515599452e-06 2.1841767102501478e-05 0.0000000000000000e+00  3.8007303578729785e-04 -4.1114864079302203e-05 0.0000000000000000e+00  -1.5884558757619350e-04 -5.9251044810570616e-04 0.0000000000000000e+00  2.1127983811491938e-05 5.4944994025414038e-05 0.0000000000000000e+00  1.0197645314162997e-04 3.5033688211116360e-04 0.0000000000000000e+00  9.5639862255356142e-05 3.0536456812450715e-04 0.0000000000000000e+00  -1.4647138689706597e-04 -1.1333021365384748e-04 0.0000000000000000e+00  1.4249178647956463e-05 -8.9613859475860230e-05 0.0000000000000000e+00  5.3808338124312525e-04 1.7102444930327029e-01 0.0000000000000000e+00  1.0585127798847103e-02 4.8436325966617488e-01 0.0000000000000000e+00  -3.6980760059597264e-03 3.6224724337917286e-01 0.0000000000000000e+00  1.3407978980953938e-01 -3.8502587681957684e-01 0.0000000000000000e+00  -7.4052619121134797e-02 3.9537096972426250e-01 0.0000000000000000e+00  -3.9564011121846564e-04 -3.5931730073522095e-01 0.0000000000000000e+00  1.7365698551322445e-02 -6.0467149989107893e-01 0.0000000000000000e+00  1.4856786363208947e-03 -6.0590626836458261e-01 0.0000000000000000e+00  1.4804280758288037e-04 -3.8096731803388245e-04 0.0000000000000000e+00  2.2110395714668430e-02 7.7691497316060593e-02 0.0000000000000000e+00  2.4922018752720636e-04 -3.9304291620948862e-04 0.0000000000000000e+00  -1.4453899160421233e-05 3.1697191265555672e-05 0.0000000000000000e+00  -8.0286575855821423e-04 -2.6052353996468264e-04 0.0000000000000000e+00  -2.2600304041284187e-04 -4.2589329519559198e-04 0.0000000000000000e+00  1.2697038931689449e-03 8.9121061989909424e-05 0.0000000000000000e+00  -3.4508822454380793e-04 -2.9244495329105920e-04 0.0000000000000000e+00  2.2202153395793275e-02 3.6612511215147370e-01 0.0000000000000000e+00  -2.4640508466047845e-02 5.7596240972133139e-01 0.0000000000000000e+00  -3.1934197135408980e-02 -3.3062669265447531e-01 0.0000000000000000e+00  6.7186045518197138e-02 -2.1377280952611535e-01 0.0000000000000000e+00  -2.3621885219276155e-02 -4.4444575556487459e-01 0.0000000000000000e+00  1.5812996290208242e-02 -4.8600815214715674e-02 0.0000000000000000e+00  2.2093985852506639e-03 1.6406684238891120e-01 0.0000000000000000e+00  3.3544712871644571e-03 5.0008433363766325e-01 0.0000000000000000e+00  -1.8803510961697006e-02 4.4457255842825161e-01 0.0000000000000000e+00  5.7237795093746926e-03 1.6717333065763170e-02 0.0000000000000000e+00  -1.3257735484151309e-01 5.7250463434374788e-01 0.0000000000000000e+00  -2.9754219970964477e-02 6.1765549702213685e-01 0.0000000000000000e+00  1.6784978321612665e-01 6.3606701061498239e-01 0.0000000000000000e+00  1.2858594136940379e-01 1.7150087341636103e-01 0.0000000000000000e+00  2.9482781037962820e-02 3.9569151748974096e-01 0.0000000000000000e+00  3.4715150028931030e-01 7.0863202394210290e-01 0.0000000000000000e+00  4.6531325755812231e-02 -4.5535700828288689e-01 0.0000000000000000e+00  3.1074989369777356e-05 -2.1366030552630322e-04 0.0000000000000000e+00  -1.5857277205002619e-02 2.9611131385615963e-01 0.0000000000000000e+00  4.9874537897587395e-03 6.6241350269831523e-01 0.0000000000000000e+00  2.3935415615552735e-02 -1.0864677317306706e-01 0.0000000000000000e+00  -3.2453526645398620e-02 -2.5604944134661645e-01 0.0000000000000000e+00  1.4698710039528410e-02 -5.3485382163000339e-01 0.0000000000000000e+00  -4.6889673482452762e-04 -4.1807123243779086e-04 0.0000000000000000e+00  -2.1657984228987531e-01 -3.6460118311081835e-01 0.0000000000000000e+00  -1.0077269981483376e-01 3.4096820070393295e-02 0.0000000000000000e+00  1.4725465450585033e-02 2.7467229770177964e-01 0.0000000000000000e+00  -1.0581591938290872e-02 5.0578679440321295e-01 0.0000000000000000e+00  2.2413584552795459e-02 -3.5393860962309803e-01 0.0000000000000000e+00  4.3725239887888829e-05 -2.8959806287872904e-04 0.0000000000000000e+00  1.4366933220460688e-02 -2.9516666473555453e-01 0.0000000000000000e+00  1.0791409095201907e-02 4.3176611771662005e-01 0.0000000000000000e+00  -5.4949065163351395e-03 -4.5077374951950561e-01 0.0000000000000000e+00  -3.9392258502388991e-02 -4.9396295361156045e-01 0.0000000000000000e+00  -3.5379406098912902e-01 2.3190655468521745e-01 0.0000000000000000e+00  2.9618334074341513e-06 2.2718280454103868e-05 0.0000000000000000e+00  2.9269093017568859e-02 -1.6786732601738993e-01 0.0000000000000000e+00  -7.1059715658079475e-02 6.8514007156292434e-01 0.0000000000000000e+00  8.1442685298557427e-06 8.9056205105484597e-06 0.0000000000000000e+00  2.6209607248475882e-02 4.2924602327688577e-01 0.0000000000000000e+00  1.1155516226498253e-02 1.9615637030153363e-01 0.0000000000000000e+00  -6.4508553532638679e-03 3.6431850755716355e-01 0.0000000000000000e+00  3.8669446297125067e-04 -4.9899193966313968e-04 0.0000000000000000e+00  1.7081549835398706e-02 -4.3584589178577432e-01 0.0000000000000000e+00  -1.4757257985746276e-02 -5.9872579151527505e-01 0.0000000000000000e+00  1.1334575602400440e-02 -5.5623912657702401e-01 0.0000000000000000e+00  4.7111691359435375e-02 2.0488337008470256e-01 0.0000000000000000e+00  1.1490106795034738e-02 6.2450875615732981e-01 0.0000000000000000e+00  9.7328755754139702e-03 -6.5666362523570343e-01 0.0000000000000000e+00  3.3567293683899727e-02 4.2423747233025572e-01 0.0000000000000000e+00  -5.0154389265204234e-02 -5.0950067781598274e-01 0.0000000000000000e+00  -1.4191989529825257e-02 -4.3774245521179234e-01 0.0000000000000000e+00  -2.5452460878302701e-03 4.9326965815530427e-01 0.0000000000000000e+00  8.0392246107984942e-04 -1.1483364835701550e-04 0.0000000000000000e+00  4.0667596685024316e-04 -5.4496549692299398e-04 0.0000000000000000e+00  -3.4964095571825109e-04 -4.3946531753102360e-04 0.0000000000000000e+00  -7.3282220727240692e-05 -7.5968569947200629e-05 0.0000000000000000e+00  -7.3875758770540777e-05 -2.1922382592258865e-04 0.0000000000000000e+00  8.8397593189252375e-06 2.3764665431498252e-05 0.0000000000000000e+00  1.8377780950151379e-03 -2.6914924447151529e-04 0.0000000000000000e+00  4.3389217978395618e-04 -2.5371835769118174e-04 0.0000000000000000e+00  -1.7889047168383962e-03 -6.5854034028841983e-04 0.0000000000000000e+00  -2.2523117861469339e-02 2.1523306673172260e-01 0.0000000000000000e+00  -4.5643021177129792e-03 -4.9566189948656386e-01 0.0000000000000000e+00  -1.1261406530854962e-02 -8.1392503594077306e-02 0.0000000000000000e+00  -4.1676547786746905e-02 -6.2102659866062759e-01 0.0000000000000000e+00  -5.7155926149509470e-04 4.3180229748222495e-04 0.0000000000000000e+00  -1.4865058609125468e-02 -6.3919869668488216e-01 0.0000000000000000e+00  3.9374309339181906e-03 -2.9235582624291934e-01 0.0000000000000000e+00  3.8927196091443850e-02 4.0552331257597144e-03 0.0000000000000000e+00  8.3885510653648382e-02 5.6231291446474341e-01 0.0000000000000000e+00  9.1685824682473244e-02 -5.6649575389224871e-01 0.0000000000000000e+00  -1.3188068484131685e-02 1.7643690310386248e-01 0.0000000000000000e+00  3.5024852324844355e-02 1.1222130973597833e-01 0.0000000000000000e+00  -4.4970575066041060e-02 -5.5127130572431182e-01 0.0000000000000000e+00  -7.0784957586611824e-02 -2.2637104899398200e-01 0.0000000000000000e+00  -4.6336326851880813e-02 5.7487766084268366e-01 0.0000000000000000e+00  -5.8613619447737089e-02 2.5407251369212019e-01 0.0000000000000000e+00  3.5136431705841513e-02 4.9959453975377521e-01 0.0000000000000000e+00  -2.6983958053883688e-02 5.5463396928477493e-01 0.0000000000000000e+00  -1.3601026859988057e-02 5.0930062587490010e-01 0.0000000000000000e+00  -3.4325383453894121e-03 -4.7158537389495675e-01 0.0000000000000000e+00  -1.5729165817368343e-02 -4.7381595298147416e-01 0.0000000000000000e+00  -5.4172835144992271e-01 -2.4296989801734067e-01 0.0000000000000000e+00  3.1819217440844906e-02 -2.9967689247710638e-01 0.0000000000000000e+00  2.1640594962330356e-01 -3.3967996718090343e-01 0.0000000000000000e+00  -6.2926431722957355e-03 3.4091917705945907e-01 0.0000000000000000e+00  7.2956532572293611e-03 4.6556925381395503e-01 0.0000000000000000e+00  -9.4169841117777223e-03 5.8287478628860778e-01 0.0000000000000000e+00  -2.3718101838544020e-01 2.4569723479762864e-01 0.0000000000000000e+00  2.6395842208077230e-01 -1.4060676848679063e-01 0.0000000000000000e+00  -1.1500180318240358e-02 6.3392326769584251e-01 0.0000000000000000e+00  2.8157718024354871e-02 -4.4078317532385741e-01 0.0000000000000000e+00  2.3158914736400246e-02 -4.0670906467514056e-01 0.0000000000000000e+00  -3.5356640783296020e-02 5.0531689020834447e-01 0.0000000000000000e+00  -1.3237942489798152e-01 1.1483657115620781e-01 0.0000000000000000e+00  -2.5136539169299338e-01 -1.2342946685560283e-01 0.0000000000000000e+00  2.8199364177887230e-02 -5.8355896627738457e-01 0.0000000000000000e+00  1.7980250598322613e-02 -2.2996356637379961e-01 0.0000000000000000e+00  5.8273564418618983e-03 -2.2472249806942265e-01 0.0000000000000000e+00  1.1976926798119545e-02 4.9692790032741524e-01 0.0000000000000000e+00  -1.1965110530787789e-03 -3.1962443789313943e-01 0.0000000000000000e+00  6.0343294476089869e-03 4.6870275098308067e-01 0.0000000000000000e+00  4.0960637547528328e-03 -4.3949752608679261e-02 0.0000000000000000e+00  -7.4399447450578443e-02 7.5876622442506106e-02 0.0000000000000000e+00  3.0879368215395273e-03 -5.5079717282902940e-01 0.0000000000000000e+00  1.1708897958957666e-02 6.0986544391730069e-01 0.0000000000000000e+00  2.1494063200693261e-01 9.2069693813972420e-01 0.0000000000000000e+00  2.7654253685290192e-01 2.7376100678603232e-01 0.0000000000000000e+00  1.0885909956540572e-02 2.1767604483492231e-01 0.0000000000000000e+00  2.7139512195808691e-03 -2.2995213901239156e-01 0.0000000000000000e+00  -1.9960215583810340e-02 4.2145304220207030e-01 0.0000000000000000e+00  6.8655287628178283e-02 4.6550341316020383e-01 0.0000000000000000e+00  4.5699138965895883e-03 3.7554283486591350e-01 0.0000000000000000e+00  5.3986482905459383e-02 3.1792114803530047e-01 0.0000000000000000e+00  4.6927697855912346e-04 -4.9270798734739729e-01 0.0000000000000000e+00  -5.3022781740256077e-02 6.9477779608819012e-01 0.0000000000000000e+00  6.7678803110488156e-02 5.7350532275903154e-01 0.0000000000000000e+00  -2.2429043122670186e-01 9.8682042883581123e-01 0.0000000000000000e+00  -7.9628609164423842e-03 5.5329032660597977e-01 0.0000000000000000e+00  4.1941044445517300e-02 -2.0883142574399491e-01 0.0000000000000000e+00  -2.2224012735282715e-02 -5.2454413307300729e-01 0.0000000000000000e+00  1.0421113646703641e-01 6.4443661392321483e-01 0.0000000000000000e+00  6.6536672303625699e-02 2.1392389094726366e-01 0.0000000000000000e+00  1.4129196070691838e-01 5.2734237286165042e-01 0.0000000000000000e+00  6.1253253162598048e-03 5.0501343606134086e-01 0.0000000000000000e+00  -2.4218923611518752e-02 -6.0440476020127409e-01 0.0000000000000000e+00  1.4737623231263200e-03 1.5457344412550805e-01 0.0000000000000000e+00  9.4149789269082427e-04 2.4983801285586693e-04 0.0000000000000000e+00  2.2194099281109395e-02 -3.8183278967249962e-01 0.0000000000000000e+00  9.4702136028563437e-04 6.2724905762315863e-01 0.0000000000000000e+00  4.0761363465358813e-01 1.5649431246481754e-01 0.0000000000000000e+00  5.7116022140973899e-01 -2.9385918376139986e-01 0.0000000000000000e+00  1.6678876811133510e-02 6.2093131996039408e-01 0.0000000000000000e+00  -2.7073463283912056e-02 -6.2992670619969970e-01 0.0000000000000000e+00  1.8075879410785971e-02 -5.1863844516793378e-01 0.0000000000000000e+00  1.4492132905377720e-02 6.4917529475809463e-02 0.0000000000000000e+00  5.6442033179325939e-02 3.3171050072205932e-01 0.0000000000000000e+00  4.4846856984187225e-04 -4.9964032244017296e-04 0.0000000000000000e+00  1.0749030490556778e-01 7.1664159582879944e-02 0.0000000000000000e+00  -4.1613726821537515e-02 5.7987697595170273e-01 0.0000000000000000e+00  3.7098860069195827e-02 8.2274990525339639e-02 0.0000000000000000e+00  -6.6660331526389893e-02 2.3093065682321084e-01 0.0000000000000000e+00  3.2812326595002411e-02 -6.0534375200136870e-01 0.0000000000000000e+00  6.5808492438811803e-02 -4.2862968024531967e-01 0.0000000000000000e+00  -2.4267403727167288e-02 3.2230957819203726e-01 0.0000000000000000e+00  1.9426056937783074e-02 -4.0689402884760079e-01 0.0000000000000000e+00  1.8153980977240875e-03 -2.6609397877191465e-01 0.0000000000000000e+00  -2.4624607347040330e-02 1.1451238287928800e-02 0.0000000000000000e+00  1.1055148156403844e-02 -6.2546098177505216e-01 0.0000000000000000e+00  -9.9600826765534903e-02 2.5442521060788831e-01 0.0000000000000000e+00  2.7921005575647817e-01 -3.3427406019782607e-01 0.0000000000000000e+00  -3.8209789569109490e-06 4.0401022727250605e-05 0.0000000000000000e+00  1.2839002536391444e-02 -5.9525573430907930e-01 0.0000000000000000e+00  -1.5658457713045612e-01 5.6969171617914860e-01 0.0000000000000000e+00  -1.1865655698556880e-02 4.8402166927489598e-01 0.0000000000000000e+00  1.7508428394473585e-02 1.9982291828336543e-01 0.0000000000000000e+00  -1.0002784536016558e-01 4.5269418862140870e-01 0.0000000000000000e+00  -3.8695114450268439e-03 4.3964206508879639e-01 0.0000000000000000e+00  -2.5323292385399918e-02 1.2731618801504549e-01 0.0000000000000000e+00  -2.4987995589619018e-03 -5.1930739200804166e-01 0.0000000000000000e+00  8.5043048039379100e-03 -2.0825330775899084e-01 0.0000000000000000e+00  1.7929170633716993e-02 3.4870730368103198e-01 0.0000000000000000e+00  -3.6358180823504588e-03 -5.8067252272419434e-01 0.0000000000000000e+00  2.0862616524889081e-02 3.1970526895594004e-01 0.0000000000000000e+00  -3.4702367307001336e-01 7.7927827160539631e-01 0.0000000000000000e+00  -4.4199292333960710e-01 2.5003569006966159e-01 0.0000000000000000e+00  2.6333987874772508e-02 5.6178592272638195e-01 0.0000000000000000e+00  9.7537988523039058e-04 1.2118842980769229e-01 0.0000000000000000e+00  1.2334100297303972e-02 5.1467837219853241e-01 0.0000000000000000e+00  -2.5674287290971695e-02 -3.3850101451327153e-01 0.0000000000000000e+00  -6.4356106054949073e-03 -2.6171699017072114e-01 0.0000000000000000e+00  9.3220908750890844e-03 -6.2802876021317433e-01 0.0000000000000000e+00  9.4834317108007191e-04 4.9964491213577692e-05 0.0000000000000000e+00  4.5896852544909918e-02 6.8038178529200066e-01 0.0000000000000000e+00  -3.1913251287132738e-02 7.1618216473407958e-01 0.0000000000000000e+00  -1.0455793089738029e-02 5.9932109077514839e-01 0.0000000000000000e+00  8.5913099029785757e-03 -1.8169286971598964e-01 0.0000000000000000e+00  -1.5606066262774225e-04 -4.7869583463358350e-04 0.0000000000000000e+00  6.5148537600682191e-02 5.8070209328840861e-01 0.0000000000000000e+00 