<?xml version="1.0"?>
<VTKFile type="UnstructuredGrid"  version="0.1"  >
<UnstructuredGrid>
<Piece  NumberOfPoints="4978" NumberOfCells="9630">
<Points>
<DataArray  type="Float64"  NumberOfComponents="3"  format="ascii">0 1.5 0  0 0 0  0.06190941752361886 0 0  0.06190941752361886 0.02304324263930277 0  0.07687367483109155 0.06663263502519032 0  0.1051805799723963 0.1030013474942385 0  0.1437626405485843 0.128208265731708 0  0.1884388916338735 0.1395218290209338 0  0.2343679681997119 0.1357160372315063 0  0.2765727421371398 0.117203306956754 0  0.3104796713154951 0.0859897797765535 0  0.3324144138380889 0.04545792568865569 0  0.34 0 0  0.4722134970410927 0 0  0.4722134970410927 0.02388743731615415 0  0.4894717723551502 0.0684361811740563 0  0.5216574972706967 0.1037422395464312 0  0.5644238112906292 0.1250373336124665 0  0.6119948867302293 0.1294454429183545 0  0.6579459862509499 0.1163712278761581 0  0.6960711592386857 0.08758043367405244 0  0.7212213898225662 0.04696141660432988 0  0.73 0 0  0.85 0 0  0.857341522555727 0.04635254915624212 0  0.8786474508437579 0.08816778784387098 0  0.9118322121561291 0.1213525491562421 0  0.9536474508437579 0.142658477444273 0  1 0.15 0  1.046352549156242 0.142658477444273 0  1.088167787843871 0.1213525491562421 0  1.121352549156242 0.08816778784387097 0  1.142658477444273 0.04635254915624211 0  1.15 0 0  1.461909417523619 0 0  1.461909417523619 0.02304324263930277 0  1.476873674831092 0.06663263502519032 0  1.505180579972396 0.1030013474942385 0  1.543762640548584 0.128208265731708 0  1.588438891633874 0.1395218290209338 0  1.634367968199712 0.1357160372315063 0  1.67657274213714 0.117203306956754 0  1.710479671315495 0.0859897797765535 0  1.732414413838089 0.04545792568865569 0  1.74 0 0  1.78 0 0  1.789134456098646 0.04592201188381079 0  1.815147186257614 0.08485281374238571 0  1.854077988116189 0.1108655439013544 0  1.9 0.12 0  1.945922011883811 0.1108655439013544 0  1.984852813742386 0.08485281374238569 0  2.010865543901355 0.04592201188381077 0  2.02 0 0  2.161909417523619 0 0  2.161909417523619 0.02304324263930277 0  2.176873674831092 0.06663263502519032 0  2.205180579972396 0.1030013474942385 0  2.243762640548584 0.128208265731708 0  2.288438891633873 0.1395218290209338 0  2.334367968199712 0.1357160372315063 0  2.37657274213714 0.117203306956754 0  2.410479671315495 0.0859897797765535 0  2.432414413838089 0.04545792568865569 0  2.44 0 0  2.472213497041093 0 0  2.472213497041093 0.02388743731615415 0  2.48947177235515 0.0684361811740563 0  2.521657497270697 0.1037422395464312 0  2.564423811290629 0.1250373336124665 0  2.611994886730229 0.1294454429183545 0  2.65794598625095 0.1163712278761581 0  2.696071159238686 0.08758043367405244 0  2.721221389822567 0.04696141660432988 0  2.73 0 0  3 0 0  3 1.5 0  0 0.75 0  3 0.75 0  1.5 1.5 0  0 0.375 0  0 0.1875 0  0 0.09375 0  0.75 1.5 0  2.25 1.5 0  1.137279452465634 0.8667483509386543 0  2.055384907633385 0.8149748422668953 0  0.5545701656450307 0.9454298343549693 0  2.545804583542266 1.045804583542266 0  2.462951104370831 0.5854482317237805 0  1.6063536999151 1.018574336065804 0  0.7683179692414909 0.5511078775270282 0  1.647896012796697 0.5780189144999826 0  1.875 1.5 0  0.3683226130580748 0.5893782185394094 0  0.375 1.5 0  0 1.125 0  3 0.375 0  1.125 1.5 0  3 1.125 0  2.625 1.5 0  1.247216233241016 0.4851891764902285 0  0.8779404074027722 1.143194262378568 0  1.992337703792022 0.4642129848858538 0  2.200035536160075 1.144037289792772 0  1.3125 1.206118267007311 0  1.882280687299076 1.18026905614258 0  0.8375010042452264 0.8437030129736524 0  0.2703628106324028 0.8673582108832857 0  0.336944444033578 1.181320038574892 0  1.424720841531434 0.7792108746582741 0  2.763716218670896 0.5625 0  0.6112325230261646 1.216037756380734 0  2.429292395855053 1.293345775631689 0  2.798691155259055 0.9375 0  2.340750225085827 0.8450755885956063 0  2.74506315455788 1.24506315455788 0  0.4115012634770826 0.3359864655288552 0  1.6875 1.5 0  1.553212834656815 1.259295117559057 0  1.783849920010049 0.8130750647527071 0  2.590242300399914 0.800172794523538 0  2.206538789959823 0.6067588023913982 0  1.022769083327432 0.627137676743421 0  2.0625 1.5 0  2.566013274303806 0.3667751817948443 0  2.317230353528816 0.3853650267397287 0  0.9546600707351991 0.3912757388497677 0  1.76490060939521 0.3540000691256479 0  1.398169292756645 0.3089248951275104 0  0.1875 1.5 0  0.6961815191548208 0.3380429757712475 0  0.6390751493076395 0.7361434669345621 0  1.385952842918209 0.9972233609662619 0  1.082019261833385 1.265823315390121 0  2.784258672215756 0.3048233224522298 0  0 0.5625 0  0.2130557952202133 0.4325455696870932 0  2.110276358430479 0.2903936515686117 0  0 1.3125 0  0.5618175915722093 0.5022778936897083 0  1.438605690073396 0.5702366817214194 0  1.851778102902867 0.6169409446553686 0  0.9375 1.5 0  1.918499765346388 0.9737703250858507 0  1.066617221574711 1.060327143126178 0  0.17830064634795 0.65625 0  1.139464543633635 0.3182162642668528 0  1.214887260891528 0.6824917486258804 0  0.4470960700565646 0.7803305254813445 0  2.056073894593081 1.292965518236122 0  0.7800417460951754 1.309431349558015 0  0.7102942521579887 1.054059105222724 0  2.772203778896419 0.7508393899039921 0  3 0.9375 0  2.4375 1.5 0  0.5625 1.5 0  3 0.5625 0  1.3125 1.5 0  0 0.9375 0  3 1.3125 0  2.8125 1.5 0  3 0.1875 0  1.74009613212014 1.312845810865967 0  0.1858279553328271 1.04932632064409 0  1.582414108002925 0.3243096672004901 0  0.4576542986122824 1.328517530191622 0  1.30595470876181 0 0  0.1616828829631953 1.229471150973137 0  1.600689448835705 0.8342777580615786 0  2.184954406689295 0.9543424310663166 0  2.356848459734244 1.033731425282726 0  2.249618867339344 1.318565528322325 0  2.031012140730151 0.6383085966483963 0  1.264473591492607 0.1926369230867345 0  1.93294708275428 0.2969945700235964 0  1.406271966518558 1.353045118606616 0  0.2855042944080262 1.351202341158466 0  2.163692386827529 0.4469681835123645 0  2.058709899218631 1.05982604745508 0  1.21875 1.361760465218127 0  1.232585115983139 1.060656719142284 0  1.682328919476849 1.161572426192166 0  0.4864612871934715 1.100927295036068 0  2.842393003195402 0.1547034389615206 0  1.901710724058898 1.340659870484523 0  2.578488906869203 1.212378831230944 0  0.346730023619794 1.013455011579226 0  1.758789788261688 0.970834021568154 0  0.9209577900333827 0.984909924281538 0  2.461973640748163 0.2490632223012221 0  2.833434714842781 1.102015011431888 0  1.485476187845101 1.118115752354218 0  0.7869575052851041 0.2127716822913992 0  1.091585464669657 0.4673676525872368 0  0.9308375558444295 1.286291202675726 0  2.609275627299536 0.5207885309723005 0  2.859418780372727 0.4404724026784034 0  0.1368795735450182 0.2913992261536034 0  0.5088670694303536 0.6431238265444117 0  0.9924988599062848 0.7887715626383616 0  0.8674753477047706 0.6821390867986818 0  0.6993572585883594 0.9038049302516018 0  1.53924450853783 0.6818717864694561 0  1.27954362181495 0.818196911265721 0  2.885754890315292 0.65625 0  0.1199579452929171 0.84375 0  0.3101130847613819 0.7251157056441525 0  2.683488575489726 1.10528265125029 0  2.637912450120847 1.350340704724588 0  0.65625 1.387568746661148 0  2.204969505432462 0.7645924845263576 0  2.34230217156612 0.6870332922078795 0  2.458336421316689 0.930056573232228 0  1.547170662421109 0.4687109428674099 0  0.55426355401875 0.2785752421136156 0  1.927690911684502 0.7425770788416013 0  2.650983472818039 0.6639703826486528 0  0.2807744135836687 0.2731407085328489 0  2.697063502273202 0.4130460425434029 0  1.768721210125562 0.4985606178023466 0  1.59375 1.394491048145999 0  1.03125 1.39617417476255 0  2.649124789533757 0.9376608889715211 0  2.899345577629528 0.84375 0  2.448792339301353 1.151333513094988 0  2.455516477512143 0.7671738041202795 0  0.1479512725554237 1.367277900867101 0  1.733007556765436 0.6856365299097277 0  2.865 0 0  0.407900401917371 0.1920322062602331 0  1.482893533441057 0.9020086108979886 0  2.902194538181383 1.21875 0  2.860324471164851 1.360324471164851 0  0.9128790560808855 0.5311054613533476 0  0.7396036279203969 1.183264973390871 0  1.379392725427689 0.4456149894503371 0  0.8305263666170877 0.339868595109382 0  2.352639297837627 1.399880277695907 0  2.15625 1.5 0  2.32277762299786 1.203473773731512 0  1.818471673600783 0.235727380341035 0  1.269129800285538 0.3222823294390822 0  2.329228807632851 0.5297324129610972 0  0.430777275012463 0.469645907614299 0  1.390502090335328 0.1630587681988043 0  1.149408636841162 1.157447166816889 0  1.687853147042319 0.2519031106491252 0  0.3941048876243997 0.8956837842542459 0  1.877835046604575 0.410724628626283 0  1.348230251479045 0.6691802479050837 0  2.336954765206726 0.2613063289913201 0  2.514033953321691 1.393470229958569 0  0 0.46875 0  0.1287800079303892 0.5340043503292357 0  2.441328451749267 0.3721441168812449 0  0.9333932382689634 0.2670516659043625 0  1.13959172768211 0.5827503401695603 0  0.8703665929291606 1.395134656069543 0  1.240468926246127 0.9364063612525604 0  1.433475419570003 1.229904687600933 0  1.020534477629395 0.9101139083191684 0  1.108777781305164 0.7462713331880694 0  0.6468125623079457 0.6038935958199032 0  1.665312060212151 0.428962863572448 0  0.2512528931669099 0.5500044694745148 0  2.66971919386773 0.2450375495263612 0  2.901855502368762 0.2640467328343441 0  2.063534245742155 0.9373123558679215 0  2.031795413587333 0.1972457754676831 0  1.836924180675512 1.065887991891963 0  1.001601941364679 1.16852535211421 0  0.8051266927803291 0.9581030042697194 0  0.7620228346493961 0.7461373576581022 0  3 1.03125 0  2.084817260746984 1.176705869274554 0  2.085981885570153 0.5347538843754811 0  1.496744890324478 0.239335226969819 0  1.894594308711337 0.8570406362709689 0  1.78125 1.5 0  2.109375 1.394928085212741 0  2.71875 1.5 0  0.4943575340553394 1.217544978302146 0  0.5937185858435849 1.055241883498284 0  2.227680725187669 0.3075299344665331 0  0.5158109084499103 0.3891628929402524 0  1.96875 1.5 0  0.6036564600183
[...]
<PointData  Vectors="f_60"> 
<DataArray  type="Float64"  Name="f_60"  NumberOfComponents="3" format="ascii">-1.0390662333914182e-04 -3.9212300869817952e-04 0.0000000000000000e+00  -5.8357103098323590e-05 -5.0982782719020882e-04 0.0000000000000000e+00  -6.7768792304499629e-05 -1.6762693083612810e-04 0.0000000000000000e+00  4.7764274480567173e-05 -1.2949627224496558e-04 0.0000000000000000e+00  1.4578660533707668e-04 2.3122056551352017e-05 0.0000000000000000e+00  3.1726801440631667e-05 3.8866529879817761e-05 0.0000000000000000e+00  -9.1442657285273799e-05 4.4719259095676482e-04 0.0000000000000000e+00  1.9008350108998495e-04 4.6038945041784431e-04 0.0000000000000000e+00  1.5999424810950099e-04 -9.6266355266845769e-07 0.0000000000000000e+00  -5.0557629119191608e-05 -2.0708290995684851e-04 0.0000000000000000e+00  -1.3579440298091107e-04 2.2137342918408790e-04 0.0000000000000000e+00  -4.5245929072623805e-05 5.2373785024408925e-04 0.0000000000000000e+00  3.1730317776792886e-05 -5.7181384805495266e-04 0.0000000000000000e+00  1.5199447788802960e-04 3.2609668622441031e-04 0.0000000000000000e+00  8.4269644550573487e-06 2.8453128874860703e-04 0.0000000000000000e+00  -1.7957624790723907e-04 3.0722434068743734e-04 0.0000000000000000e+00  1.7851149494305677e-04 4.3269073989372941e-04 0.0000000000000000e+00  1.5361565824339299e-04 9.2998755078020135e-05 0.0000000000000000e+00  -3.2364662606142742e-05 -1.6248755955006283e-05 0.0000000000000000e+00  -2.7844737603627165e-04 3.8362104148329792e-04 0.0000000000000000e+00  -1.6991711534931430e-06 4.1227063741360834e-04 0.0000000000000000e+00  9.5954757822288927e-05 1.5671087477860807e-04 0.0000000000000000e+00  -1.8790212921502997e-04 2.1063747848441174e-04 0.0000000000000000e+00  -1.4131915101372425e-04 2.7759120492323327e-04 0.0000000000000000e+00  -1.8641616701876140e-05 4.3954228251918330e-04 0.0000000000000000e+00  2.8722490980884202e-04 1.6096204892126887e-04 0.0000000000000000e+00  8.2813609820107329e-05 -1.1394141345725095e-04 0.0000000000000000e+00  -1.3462116743001454e-04 1.0256852747103977e-04 0.0000000000000000e+00  -2.1759060307860895e-04 2.8410702270829349e-04 0.0000000000000000e+00  1.6145641751347183e-04 3.4158280374779358e-04 0.0000000000000000e+00  1.7324377462768197e-04 2.7622806514938717e-05 0.0000000000000000e+00  -1.1657429389972854e-04 -5.7360320832673789e-05 0.0000000000000000e+00  -1.3426478248574529e-04 -5.3394560992722081e-05 0.0000000000000000e+00  -5.0922737317078599e-05 -2.1336691037837329e-04 0.0000000000000000e+00  -2.2526507405327669e-04 -1.8336837092358672e-05 0.0000000000000000e+00  -4.8325468636433745e-05 1.7921783408464466e-04 0.0000000000000000e+00  2.4459078671813588e-04 3.5638268302358754e-04 0.0000000000000000e+00  5.8520856073624236e-05 6.7882537694583829e-05 0.0000000000000000e+00  -4.0475350435276637e-05 3.5158818030962783e-05 0.0000000000000000e+00  -1.9630595757522042e-04 1.1461894167438782e-04 0.0000000000000000e+00  2.6927024685487183e-04 4.0653760864553214e-04 0.0000000000000000e+00  5.1013811631416862e-04 1.4298010644602749e-04 0.0000000000000000e+00  -1.0644160257155325e-04 -5.8958128466528228e-05 0.0000000000000000e+00  -1.9879787871939948e-04 5.9735571482610424e-05 0.0000000000000000e+00  -1.9257549538329323e-04 6.2712252518675368e-05 0.0000000000000000e+00  -1.3600836940697454e-04 7.0772650877832960e-05 0.0000000000000000e+00  -6.7854232500059804e-05 9.4190880687870847e-05 0.0000000000000000e+00  1.0067391184033995e-04 2.3319864307637028e-05 0.0000000000000000e+00  -1.3303790989958305e-04 7.5308212131385121e-05 0.0000000000000000e+00  -2.3799133758582350e-04 2.7724316505188003e-04 0.0000000000000000e+00  4.5115063384302184e-04 2.5585897397841591e-04 0.0000000000000000e+00  4.4604047096261237e-04 3.4076643597524210e-05 0.0000000000000000e+00  -2.0573092709190254e-04 -6.2804974848493708e-05 0.0000000000000000e+00  -9.4827455053926851e-05 2.7405560994588502e-04 0.0000000000000000e+00  1.1074931579770307e-04 1.0937059256966352e-05 0.0000000000000000e+00  1.6294853925207187e-04 -2.5766990187306695e-05 0.0000000000000000e+00  1.4733336372994252e-04 -4.0759885072451866e-05 0.0000000000000000e+00  -5.4401672269370112e-05 2.2502473726583781e-05 0.0000000000000000e+00  -2.9159632849078371e-04 8.3649438814643745e-05 0.0000000000000000e+00  3.2694958309425939e-04 2.4783624999847882e-04 0.0000000000000000e+00  1.4804978735062744e-04 3.8293262844053781e-05 0.0000000000000000e+00  -1.7522004415913794e-05 -8.9412256262207801e-05 0.0000000000000000e+00  -9.7314127428171622e-05 3.8241991067267496e-04 0.0000000000000000e+00  3.0900774160428009e-05 2.0057850168419736e-04 0.0000000000000000e+00  2.1997238296460445e-04 -7.4912753746543537e-05 0.0000000000000000e+00  3.0711788333050285e-04 -2.0161928284847408e-04 0.0000000000000000e+00  2.5435628221408442e-04 -1.1581579695776081e-04 0.0000000000000000e+00  4.2054382576567784e-04 2.6990559700307948e-04 0.0000000000000000e+00  4.6451701925582707e-05 7.4651059868128047e-05 0.0000000000000000e+00  1.7976753566887856e-04 1.8128799842375356e-04 0.0000000000000000e+00  3.4243134959737723e-04 -2.9287562538950469e-05 0.0000000000000000e+00  1.1178534692006265e-04 -4.1049377105811796e-04 0.0000000000000000e+00  -4.3530060126676664e-04 -1.3394174941587400e-04 0.0000000000000000e+00  -1.2072988408461476e-04 8.8835080073090898e-04 0.0000000000000000e+00  7.0631362601120216e-04 5.0913890508673951e-04 0.0000000000000000e+00  -7.5899817390552788e-03 -2.3243319838973471e-03 0.0000000000000000e+00  2.8492971891121714e-03 -6.8682005871631175e-04 0.0000000000000000e+00  -2.8605612112463379e-05 3.5449401057365837e-05 0.0000000000000000e+00  1.9140505641236622e-04 -4.8502628495515869e-05 0.0000000000000000e+00  -1.1896841518324354e-04 -5.7616176041290544e-04 0.0000000000000000e+00  2.9906334634045373e-05 5.6847933505920960e-05 0.0000000000000000e+00  6.9269039467127256e-05 1.9465403305979497e-04 0.0000000000000000e+00  1.2545285013535398e-04 8.5318158294216478e-05 0.0000000000000000e+00  -7.0771231353480160e-05 1.3026500323502373e-04 0.0000000000000000e+00  -4.0077389793868220e-05 1.7663302278062343e-04 0.0000000000000000e+00  3.5308000644307288e-04 9.2585019920311790e-02 0.0000000000000000e+00  5.4937977187281975e-03 2.6304578513259574e-01 0.0000000000000000e+00  -1.8044611379840927e-03 1.9584979767117341e-01 0.0000000000000000e+00  7.3528157746161407e-02 -2.0806249583017580e-01 0.0000000000000000e+00  -4.0385118161039166e-02 2.1802851361270037e-01 0.0000000000000000e+00  -8.5816479361125860e-05 -1.9432675106518174e-01 0.0000000000000000e+00  9.3033350917336478e-03 -3.2712660426838919e-01 0.0000000000000000e+00  7.1362510206812941e-04 -3.2784928662360069e-01 0.0000000000000000e+00  2.1262059433994622e-04 -2.2128488995929444e-04 0.0000000000000000e+00  1.1766317815391543e-02 4.0677268753986411e-02 0.0000000000000000e+00  2.8181421872547872e-04 -2.1751490611517362e-04 0.0000000000000000e+00  -4.0062137172370234e-05 4.4951295226924813e-05 0.0000000000000000e+00  -7.1084432168379416e-04 -1.6392373378159734e-04 0.0000000000000000e+00  -3.2863889954893905e-04 -2.0311270933638572e-04 0.0000000000000000e+00  1.1830015274276750e-03 8.9845186606753925e-05 0.0000000000000000e+00  -4.4771672440923363e-04 -1.1768871119566294e-04 0.0000000000000000e+00  1.2054584149547543e-02 1.9728818883653160e-01 0.0000000000000000e+00  -1.2960576582229696e-02 3.1122016637640021e-01 0.0000000000000000e+00  -1.7410883908967417e-02 -1.7980350825188973e-01 0.0000000000000000e+00  3.6644504221947309e-02 -1.1768705884042588e-01 0.0000000000000000e+00  -1.2709276150138761e-02 -2.3979483181558309e-01 0.0000000000000000e+00  8.7519470055950586e-03 -2.6623435343263949e-02 0.0000000000000000e+00  1.2543067091720004e-03 8.8672040856788370e-02 0.0000000000000000e+00  2.0173515969344248e-03 2.7041389875947502e-01 0.0000000000000000e+00  -9.6740260614485724e-03 2.4088745714031087e-01 0.0000000000000000e+00  3.0070024038051754e-03 9.4108849547013158e-03 0.0000000000000000e+00  -7.2154057469943508e-02 3.1529629642713614e-01 0.0000000000000000e+00  -1.5556630167038390e-02 3.3454105304606285e-01 0.0000000000000000e+00  9.1048084338837196e-02 3.4049781860580358e-01 0.0000000000000000e+00  7.0376065969233348e-02 8.9137160061187812e-02 0.0000000000000000e+00  1.5787044586502298e-02 2.1568699984009726e-01 0.0000000000000000e+00  1.8863858676142090e-01 3.7335688781315751e-01 0.0000000000000000e+00  2.4518537850593675e-02 -2.4831314793771697e-01 0.0000000000000000e+00  -1.4104138346631806e-04 7.5028891431863194e-07 0.0000000000000000e+00  -8.4252349976055851e-03 1.6105595452606564e-01 0.0000000000000000e+00  2.6737114716821869e-03 3.5877134738790661e-01 0.0000000000000000e+00  1.3573135872511390e-02 -5.7593569568112048e-02 0.0000000000000000e+00  -1.7300256557143550e-02 -1.3740620906183795e-01 0.0000000000000000e+00  7.7831339612979573e-03 -2.8983251499847273e-01 0.0000000000000000e+00  -4.0525090379415146e-04 -3.5674472571285839e-04 0.0000000000000000e+00  -1.1689890462117350e-01 -2.0109395826914031e-01 0.0000000000000000e+00  -5.4748884084960051e-02 1.4652678097449226e-02 0.0000000000000000e+00  7.7874514389962637e-03 1.4805908595795761e-01 0.0000000000000000e+00  -5.9635007547362067e-03 2.7366166136976355e-01 0.0000000000000000e+00  1.1747020596173038e-02 -1.9112638355547765e-01 0.0000000000000000e+00  -1.6626690887637744e-04 -1.0849274995693525e-04 0.0000000000000000e+00  7.6657601604802443e-03 -1.6049283052060950e-01 0.0000000000000000e+00  5.8611832481635711e-03 2.3316428360594157e-01 0.0000000000000000e+00  -3.0195584142233985e-03 -2.4418298779550607e-01 0.0000000000000000e+00  -2.1136379540202841e-02 -2.6832480634154721e-01 0.0000000000000000e+00  -1.8945620473679944e-01 1.4041942517587552e-01 0.0000000000000000e+00  -2.5088012075636007e-06 3.4742042665393971e-05 0.0000000000000000e+00  1.5664079021715217e-02 -9.0029594473112512e-02 0.0000000000000000e+00  -3.9030816377470051e-02 3.7221670263011530e-01 0.0000000000000000e+00  -1.0117674184524513e-05 5.5186474423462182e-05 0.0000000000000000e+00  1.3931438875729124e-02 2.3301690710686479e-01 0.0000000000000000e+00  5.7679924594120592e-03 1.0662095323049235e-01 0.0000000000000000e+00  -3.6281233294976865e-03 1.9775030341151903e-01 0.0000000000000000e+00  3.2599169438150475e-04 -3.7274190724174473e-04 0.0000000000000000e+00  9.4311515303774386e-03 -2.3597512426373976e-01 0.0000000000000000e+00  -7.9929112683247705e-03 -3.2435366511188091e-01 0.0000000000000000e+00  6.0997750106191176e-03 -3.0110020743861027e-01 0.0000000000000000e+00  2.5286140551662374e-02 1.1251725106731332e-01 0.0000000000000000e+00  6.2726557568852145e-03 3.3780403837939682e-01 0.0000000000000000e+00  5.1141305677306920e-03 -3.5573541980832984e-01 0.0000000000000000e+00  1.8849668366214153e-02 2.3104681013088282e-01 0.0000000000000000e+00  -2.6959141318519984e-02 -2.7692162954303401e-01 0.0000000000000000e+00  -7.6362624211882089e-03 -2.3667377109028653e-01 0.0000000000000000e+00  -1.3364944179044837e-03 2.6736270806401280e-01 0.0000000000000000e+00  6.2346380816179800e-04 -1.2795150260094218e-04 0.0000000000000000e+00  3.1421405126855868e-04 -3.7948314209125685e-04 0.0000000000000000e+00  -3.0473278367079346e-04 -3.8002215105201848e-04 0.0000000000000000e+00  -2.1267132972558166e-04 -5.7622161742064130e-05 0.0000000000000000e+00  1.0172583095670676e-04 -1.6469430251063395e-05 0.0000000000000000e+00  3.6021523997745746e-06 4.6403845258453429e-05 0.0000000000000000e+00  1.7607280630057471e-03 -3.3241736336864360e-04 0.0000000000000000e+00  2.4103479385344706e-04 -3.3193987423843610e-05 0.0000000000000000e+00  -1.1674599064431250e-03 -3.2106218923048707e-04 0.0000000000000000e+00  -1.1600710730904618e-02 1.1615244256405496e-01 0.0000000000000000e+00  -2.2472663159216312e-03 -2.6897944608781460e-01 0.0000000000000000e+00  -5.9849615731250479e-03 -4.3825564617865083e-02 0.0000000000000000e+00  -2.2392275650606249e-02 -3.3719656479009796e-01 0.0000000000000000e+00  -4.3316559690721192e-04 3.7086284753099272e-04 0.0000000000000000e+00  -7.8123900427732275e-03 -3.4691785180819329e-01 0.0000000000000000e+00  2.0726210289226353e-03 -1.5832996185382092e-01 0.0000000000000000e+00  2.1571803494062972e-02 1.2379747610979811e-03 0.0000000000000000e+00  4.5000826911890786e-02 3.0700435259713726e-01 0.0000000000000000e+00  4.9887814468629013e-02 -3.0578696498209595e-01 0.0000000000000000e+00  -7.4178316445435164e-03 9.5361658804345245e-02 0.0000000000000000e+00  1.8400609828618401e-02 5.9020952137861328e-02 0.0000000000000000e+00  -2.4362050830820534e-02 -2.9820617343486922e-01 0.0000000000000000e+00  -3.7824307877357390e-02 -1.2439605776458121e-01 0.0000000000000000e+00  -2.4627515539437417e-02 3.1136295834749528e-01 0.0000000000000000e+00  -3.2028802042327893e-02 1.4031427702593979e-01 0.0000000000000000e+00  1.8909210216966899e-02 2.7186702337061058e-01 0.0000000000000000e+00  -1.5031860025425557e-02 3.0130051638800609e-01 0.0000000000000000e+00  -7.1071698809791169e-03 2.7610062672698843e-01 0.0000000000000000e+00  -1.7331013894349946e-03 -2.5520361092408211e-01 0.0000000000000000e+00  -8.3652406863923730e-03 -2.5718563487535978e-01 0.0000000000000000e+00  -2.9253969276560898e-01 -1.3187603750001539e-01 0.0000000000000000e+00  1.7018153100269776e-02 -1.6244169291605076e-01 0.0000000000000000e+00  1.1783987679190756e-01 -1.7752698961556077e-01 0.0000000000000000e+00  -3.1606493460916807e-03 1.8441492752825314e-01 0.0000000000000000e+00  3.9304698717937256e-03 2.5216554822285769e-01 0.0000000000000000e+00  -4.8592858817866850e-03 3.1557613561136166e-01 0.0000000000000000e+00  -1.2966234594747181e-01 1.4185552796556136e-01 0.0000000000000000e+00  1.4460150395375954e-01 -7.8889092244289596e-02 0.0000000000000000e+00  -6.0149327928893459e-03 3.4283271535294307e-01 0.0000000000000000e+00  1.4257881791245786e-02 -2.3952226250187153e-01 0.0000000000000000e+00  1.2412401066153992e-02 -2.1930101591981341e-01 0.0000000000000000e+00  -1.8799963198709514e-02 2.7458339853040403e-01 0.0000000000000000e+00  -7.1086125637497069e-02 5.7109228776639979e-02 0.0000000000000000e+00  -1.3393491041400901e-01 -6.9524197701350654e-02 0.0000000000000000e+00  1.4819595276446260e-02 -3.1727307178418851e-01 0.0000000000000000e+00  9.5851430074962683e-03 -1.2396121731853453e-01 0.0000000000000000e+00  3.1072136554854022e-03 -1.2193451241447108e-01 0.0000000000000000e+00  6.4707584256294901e-03 2.6913506462562142e-01 0.0000000000000000e+00  -6.8309768152864745e-04 -1.7303329590246672e-01 0.0000000000000000e+00  3.2870124888019427e-03 2.5365409283843532e-01 0.0000000000000000e+00  2.2346937283099885e-03 -2.3955427926940148e-02 0.0000000000000000e+00  -3.9492813022743781e-02 3.8800067268377050e-02 0.0000000000000000e+00  1.5977146466457487e-03 -2.9857405347171539e-01 0.0000000000000000e+00  6.4092239720673298e-03 3.2959957824826031e-01 0.0000000000000000e+00  1.1478639306127221e-01 5.0167925235158062e-01 0.0000000000000000e+00  1.5075011829683646e-01 1.5982161005009607e-01 0.0000000000000000e+00  5.2119968798503332e-03 1.2049593437369764e-01 0.0000000000000000e+00  1.7797376930018842e-03 -1.2442354556381401e-01 0.0000000000000000e+00  -1.1075658563835517e-02 2.2750680884462254e-01 0.0000000000000000e+00  3.6856415664348906e-02 2.4982748430841192e-01 0.0000000000000000e+00  2.3241365062817505e-03 2.0331616173591310e-01 0.0000000000000000e+00  2.8352624777408898e-02 1.7378796999474430e-01 0.0000000000000000e+00  1.8134991306112852e-04 -2.6640553759911517e-01 0.0000000000000000e+00  -2.9857459709257371e-02 3.7380806241451903e-01 0.0000000000000000e+00  3.5954686285279779e-02 3.1114263598126596e-01 0.0000000000000000e+00  -1.2204383528213257e-01 5.3415269301619539e-01 0.0000000000000000e+00  -4.5543690328014082e-03 2.9945953440225692e-01 0.0000000000000000e+00  2.0760249907740141e-02 -1.1311904529438423e-01 0.0000000000000000e+00  -1.2923686830147689e-02 -2.8430914853013584e-01 0.0000000000000000e+00  5.5353619009350964e-02 3.5234423315564090e-01 0.0000000000000000e+00  3.6242123918377847e-02 1.1778349325688343e-01 0.0000000000000000e+00  7.6639528971787788e-02 2.8122562538702861e-01 0.0000000000000000e+00  3.3191887854980189e-03 2.7360639205955306e-01 0.0000000000000000e+00  -1.1022030319660063e-02 -3.2793357270088130e-01 0.0000000000000000e+00  7.1620291610945824e-04 8.3860809423256244e-02 0.0000000000000000e+00  6.4400047370375118e-04 1.8012843545159692e-04 0.0000000000000000e+00  1.2229583738081418e-02 -2.0953157831816735e-01 0.0000000000000000e+00  5.8351196800036584e-04 3.3953832518628796e-01 0.0000000000000000e+00  2.2042913801337272e-01 1.0125334627445839e-01 0.0000000000000000e+00  3.1187775705891552e-01 -1.5118503374938941e-01 0.0000000000000000e+00  8.9259364658053255e-03 3.3575840872249318e-01 0.0000000000000000e+00  -1.4572332970227397e-02 -3.4084685815605126e-01 0.0000000000000000e+00  9.4722667887878406e-03 -2.8060366872796161e-01 0.0000000000000000e+00  7.5913092881319498e-03 3.5490975340152740e-02 0.0000000000000000e+00  3.3185051071207033e-02 1.8344264586461456e-01 0.0000000000000000e+00  3.6880153394555897e-04 -3.8966358902926536e-04 0.0000000000000000e+00  5.8474708420221254e-02 4.4199606572320992e-02 0.0000000000000000e+00  -2.2241867747021461e-02 3.1510923803070562e-01 0.0000000000000000e+00  1.9787180732254609e-02 4.2681933608001918e-02 0.0000000000000000e+00  -3.5956269114359021e-02 1.2289219050737651e-01 0.0000000000000000e+00  1.7264831523408582e-02 -3.2850678892088309e-01 0.0000000000000000e+00  3.5104809206104343e-02 -2.3177167695156040e-01 0.0000000000000000e+00  -1.2896585220595743e-02 1.7350041401228247e-01 0.0000000000000000e+00  9.4575962701148961e-03 -2.2062120931222445e-01 0.0000000000000000e+00  1.0142836420626740e-03 -1.4439855668035551e-01 0.0000000000000000e+00  -1.3515116373926965e-02 7.2480448114403294e-03 0.0000000000000000e+00  5.8612889827285922e-03 -3.3866323346454219e-01 0.0000000000000000e+00  -5.4308472785035533e-02 1.3339651895738885e-01 0.0000000000000000e+00  1.4982836541415098e-01 -1.8649490672762395e-01 0.0000000000000000e+00  -1.8595871233960559e-05 4.4869644370220451e-05 0.0000000000000000e+00  6.6443729267547554e-03 -3.2275365345060464e-01 0.0000000000000000e+00  -8.5028902599070005e-02 3.1460224810413900e-01 0.0000000000000000e+00  -6.1708152540927005e-03 2.6094080349816529e-01 0.0000000000000000e+00  9.3984467880074453e-03 1.0879507920501996e-01 0.0000000000000000e+00  -5.3516213681520777e-02 2.4437059268437458e-01 0.0000000000000000e+00  -1.9664712603231732e-03 2.3800948356934917e-01 0.0000000000000000e+00  -1.3413402810701507e-02 6.7941493956880358e-02 0.0000000000000000e+00  -1.3828835964356970e-03 -2.8105598239970192e-01 0.0000000000000000e+00  4.5404747935881475e-03 -1.1241675508778122e-01 0.0000000000000000e+00  9.6564127265971276e-03 1.8802768904648481e-01 0.0000000000000000e+00  -2.1844908328703216e-03 -3.1415496482188066e-01 0.0000000000000000e+00  1.1139594723089888e-02 1.7326974436519801e-01 0.0000000000000000e+00  -1.8862515706133573e-01 4.1476553262982585e-01 0.0000000000000000e+00  -2.3867274701022989e-01 1.1805622699641391e-01 0.0000000000000000e+00  1.4201109569209641e-02 3.0490174265515990e-01 0.0000000000000000e+00  -1.2273472310921211e-03 6.5375683379657559e-02 0.0000000000000000e+00  6.8995967758454417e-03 2.7827351154302821e-01 0.0000000000000000e+00  -1.3718374236348958e-02 -1.8223839959350249e-01 0.0000000000000000e+00  -3.3784540837657646e-03 -1.4215318607032901e-01 0.0000000000000000e+00  4.9239850138779809e-03 -3.3997010170816022e-01 0.0000000000000000e+00  7.8091119482602653e-04 2.5064544223082462e-05 0.0000000000000000e+00  2.5071864384712910e-02 3.6895924958511273e-01 0.0000000000000000e+00  -1.7694937107546695e-02 3.8792898863914821e-01 0.0000000000000000e+00  -4.9283121898256819e-03 3.2489582755486357e-01 0.0000000000000000e+00  4.6347737760934040e-03 -9.8500722601029087e-02 0.0000000000000000e+00  -1.2001724969929867e-04 -3.9340892986536611e-04 0.0000000000000000e+00  3.5978734767923196e-02 3.1639745390727664e-01