<?xml version="1.0"?>
<VTKFile type="UnstructuredGrid"  version="0.1"  >
<UnstructuredGrid>
<Piece  NumberOfPoints="4978" NumberOfCells="9630">
<Points>
<DataArray  type="Float64"  NumberOfComponents="3"  format="ascii">0 1.5 0  0 0 0  0.06190941752361886 0 0  0.06190941752361886 0.02304324263930277 0  0.07687367483109155 0.06663263502519032 0  0.1051805799723963 0.1030013474942385 0  0.1437626405485843 0.128208265731708 0  0.1884388916338735 0.1395218290209338 0  0.2343679681997119 0.1357160372315063 0  0.2765727421371398 0.117203306956754 0  0.3104796713154951 0.0859897797765535 0  0.3324144138380889 0.04545792568865569 0  0.34 0 0  0.4722134970410927 0 0  0.4722134970410927 0.02388743731615415 0  0.4894717723551502 0.0684361811740563 0  0.5216574972706967 0.1037422395464312 0  0.5644238112906292 0.1250373336124665 0  0.6119948867302293 0.1294454429183545 0  0.6579459862509499 0.1163712278761581 0  0.6960711592386857 0.08758043367405244 0  0.7212213898225662 0.04696141660432988 0  0.73 0 0  0.85 0 0  0.857341522555727 0.04635254915624212 0  0.8786474508437579 0.08816778784387098 0  0.9118322121561291 0.1213525491562421 0  0.9536474508437579 0.142658477444273 0  1 0.15 0  1.046352549156242 0.142658477444273 0  1.088167787843871 0.1213525491562421 0  1.121352549156242 0.08816778784387097 0  1.142658477444273 0.04635254915624211 0  1.15 0 0  1.461909417523619 0 0  1.461909417523619 0.02304324263930277 0  1.476873674831092 0.06663263502519032 0  1.505180579972396 0.1030013474942385 0  1.543762640548584 0.128208265731708 0  1.588438891633874 0.1395218290209338 0  1.634367968199712 0.1357160372315063 0  1.67657274213714 0.117203306956754 0  1.710479671315495 0.0859897797765535 0  1.732414413838089 0.04545792568865569 0  1.74 0 0  1.78 0 0  1.789134456098646 0.04592201188381079 0  1.815147186257614 0.08485281374238571 0  1.854077988116189 0.1108655439013544 0  1.9 0.12 0  1.945922011883811 0.1108655439013544 0  1.984852813742386 0.08485281374238569 0  2.010865543901355 0.04592201188381077 0  2.02 0 0  2.161909417523619 0 0  2.161909417523619 0.02304324263930277 0  2.176873674831092 0.06663263502519032 0  2.205180579972396 0.1030013474942385 0  2.243762640548584 0.128208265731708 0  2.288438891633873 0.1395218290209338 0  2.334367968199712 0.1357160372315063 0  2.37657274213714 0.117203306956754 0  2.410479671315495 0.0859897797765535 0  2.432414413838089 0.04545792568865569 0  2.44 0 0  2.472213497041093 0 0  2.472213497041093 0.02388743731615415 0  2.48947177235515 0.0684361811740563 0  2.521657497270697 0.1037422395464312 0  2.564423811290629 0.1250373336124665 0  2.611994886730229 0.1294454429183545 0  2.65794598625095 0.1163712278761581 0  2.696071159238686 0.08758043367405244 0  2.721221389822567 0.04696141660432988 0  2.73 0 0  3 0 0  3 1.5 0  0 0.75 0  3 0.75 0  1.5 1.5 0  0 0.375 0  0 0.1875 0  0 0.09375 0  0.75 1.5 0  2.25 1.5 0  1.137279452465634 0.8667483509386543 0  2.055384907633385 0.8149748422668953 0  0.5545701656450307 0.9454298343549693 0  2.545804583542266 1.045804583542266 0  2.462951104370831 0.5854482317237805 0  1.6063536999151 1.018574336065804 0  0.7683179692414909 0.5511078775270282 0  1.647896012796697 0.5780189144999826 0  1.875 1.5 0  0.3683226130580748 0.5893782185394094 0  0.375 1.5 0  0 1.125 0  3 0.375 0  1.125 1.5 0  3 1.125 0  2.625 1.5 0  1.247216233241016 0.4851891764902285 0  0.8779404074027722 1.143194262378568 0  1.992337703792022 0.4642129848858538 0  2.200035536160075 1.144037289792772 0  1.3125 1.206118267007311 0  1.882280687299076 1.18026905614258 0  0.8375010042452264 0.8437030129736524 0  0.2703628106324028 0.8673582108832857 0  0.336944444033578 1.181320038574892 0  1.424720841531434 0.7792108746582741 0  2.763716218670896 0.5625 0  0.6112325230261646 1.216037756380734 0  2.429292395855053 1.293345775631689 0  2.798691155259055 0.9375 0  2.340750225085827 0.8450755885956063 0  2.74506315455788 1.24506315455788 0  0.4115012634770826 0.3359864655288552 0  1.6875 1.5 0  1.553212834656815 1.259295117559057 0  1.783849920010049 0.8130750647527071 0  2.590242300399914 0.800172794523538 0  2.206538789959823 0.6067588023913982 0  1.022769083327432 0.627137676743421 0  2.0625 1.5 0  2.566013274303806 0.3667751817948443 0  2.317230353528816 0.3853650267397287 0  0.9546600707351991 0.3912757388497677 0  1.76490060939521 0.3540000691256479 0  1.398169292756645 0.3089248951275104 0  0.1875 1.5 0  0.6961815191548208 0.3380429757712475 0  0.6390751493076395 0.7361434669345621 0  1.385952842918209 0.9972233609662619 0  1.082019261833385 1.265823315390121 0  2.784258672215756 0.3048233224522298 0  0 0.5625 0  0.2130557952202133 0.4325455696870932 0  2.110276358430479 0.2903936515686117 0  0 1.3125 0  0.5618175915722093 0.5022778936897083 0  1.438605690073396 0.5702366817214194 0  1.851778102902867 0.6169409446553686 0  0.9375 1.5 0  1.918499765346388 0.9737703250858507 0  1.066617221574711 1.060327143126178 0  0.17830064634795 0.65625 0  1.139464543633635 0.3182162642668528 0  1.214887260891528 0.6824917486258804 0  0.4470960700565646 0.7803305254813445 0  2.056073894593081 1.292965518236122 0  0.7800417460951754 1.309431349558015 0  0.7102942521579887 1.054059105222724 0  2.772203778896419 0.7508393899039921 0  3 0.9375 0  2.4375 1.5 0  0.5625 1.5 0  3 0.5625 0  1.3125 1.5 0  0 0.9375 0  3 1.3125 0  2.8125 1.5 0  3 0.1875 0  1.74009613212014 1.312845810865967 0  0.1858279553328271 1.04932632064409 0  1.582414108002925 0.3243096672004901 0  0.4576542986122824 1.328517530191622 0  1.30595470876181 0 0  0.1616828829631953 1.229471150973137 0  1.600689448835705 0.8342777580615786 0  2.184954406689295 0.9543424310663166 0  2.356848459734244 1.033731425282726 0  2.249618867339344 1.318565528322325 0  2.031012140730151 0.6383085966483963 0  1.264473591492607 0.1926369230867345 0  1.93294708275428 0.2969945700235964 0  1.406271966518558 1.353045118606616 0  0.2855042944080262 1.351202341158466 0  2.163692386827529 0.4469681835123645 0  2.058709899218631 1.05982604745508 0  1.21875 1.361760465218127 0  1.232585115983139 1.060656719142284 0  1.682328919476849 1.161572426192166 0  0.4864612871934715 1.100927295036068 0  2.842393003195402 0.1547034389615206 0  1.901710724058898 1.340659870484523 0  2.578488906869203 1.212378831230944 0  0.346730023619794 1.013455011579226 0  1.758789788261688 0.970834021568154 0  0.9209577900333827 0.984909924281538 0  2.461973640748163 0.2490632223012221 0  2.833434714842781 1.102015011431888 0  1.485476187845101 1.118115752354218 0  0.7869575052851041 0.2127716822913992 0  1.091585464669657 0.4673676525872368 0  0.9308375558444295 1.286291202675726 0  2.609275627299536 0.5207885309723005 0  2.859418780372727 0.4404724026784034 0  0.1368795735450182 0.2913992261536034 0  0.5088670694303536 0.6431238265444117 0  0.9924988599062848 0.7887715626383616 0  0.8674753477047706 0.6821390867986818 0  0.6993572585883594 0.9038049302516018 0  1.53924450853783 0.6818717864694561 0  1.27954362181495 0.818196911265721 0  2.885754890315292 0.65625 0  0.1199579452929171 0.84375 0  0.3101130847613819 0.7251157056441525 0  2.683488575489726 1.10528265125029 0  2.637912450120847 1.350340704724588 0  0.65625 1.387568746661148 0  2.204969505432462 0.7645924845263576 0  2.34230217156612 0.6870332922078795 0  2.458336421316689 0.930056573232228 0  1.547170662421109 0.4687109428674099 0  0.55426355401875 0.2785752421136156 0  1.927690911684502 0.7425770788416013 0  2.650983472818039 0.6639703826486528 0  0.2807744135836687 0.2731407085328489 0  2.697063502273202 0.4130460425434029 0  1.768721210125562 0.4985606178023466 0  1.59375 1.394491048145999 0  1.03125 1.39617417476255 0  2.649124789533757 0.9376608889715211 0  2.899345577629528 0.84375 0  2.448792339301353 1.151333513094988 0  2.455516477512143 0.7671738041202795 0  0.1479512725554237 1.367277900867101 0  1.733007556765436 0.6856365299097277 0  2.865 0 0  0.407900401917371 0.1920322062602331 0  1.482893533441057 0.9020086108979886 0  2.902194538181383 1.21875 0  2.860324471164851 1.360324471164851 0  0.9128790560808855 0.5311054613533476 0  0.7396036279203969 1.183264973390871 0  1.379392725427689 0.4456149894503371 0  0.8305263666170877 0.339868595109382 0  2.352639297837627 1.399880277695907 0  2.15625 1.5 0  2.32277762299786 1.203473773731512 0  1.818471673600783 0.235727380341035 0  1.269129800285538 0.3222823294390822 0  2.329228807632851 0.5297324129610972 0  0.430777275012463 0.469645907614299 0  1.390502090335328 0.1630587681988043 0  1.149408636841162 1.157447166816889 0  1.687853147042319 0.2519031106491252 0  0.3941048876243997 0.8956837842542459 0  1.877835046604575 0.410724628626283 0  1.348230251479045 0.6691802479050837 0  2.336954765206726 0.2613063289913201 0  2.514033953321691 1.393470229958569 0  0 0.46875 0  0.1287800079303892 0.5340043503292357 0  2.441328451749267 0.3721441168812449 0  0.9333932382689634 0.2670516659043625 0  1.13959172768211 0.5827503401695603 0  0.8703665929291606 1.395134656069543 0  1.240468926246127 0.9364063612525604 0  1.433475419570003 1.229904687600933 0  1.020534477629395 0.9101139083191684 0  1.108777781305164 0.7462713331880694 0  0.6468125623079457 0.6038935958199032 0  1.665312060212151 0.428962863572448 0  0.2512528931669099 0.5500044694745148 0  2.66971919386773 0.2450375495263612 0  2.901855502368762 0.2640467328343441 0  2.063534245742155 0.9373123558679215 0  2.031795413587333 0.1972457754676831 0  1.836924180675512 1.065887991891963 0  1.001601941364679 1.16852535211421 0  0.8051266927803291 0.9581030042697194 0  0.7620228346493961 0.7461373576581022 0  3 1.03125 0  2.084817260746984 1.176705869274554 0  2.085981885570153 0.5347538843754811 0  1.496744890324478 0.239335226969819 0  1.894594308711337 0.8570406362709689 0  1.78125 1.5 0  2.109375 1.394928085212741 0  2.71875 1.5 0  0.4943575340553394 1.217544978302146 0  0.5937185858435849 1.055241883498284 0  2.227680725187669 0.3075299344665331 0  0.5158109084499103 0.3891628929402524 0  1.96875 1.5 0  0.6036564600183
[...]
<PointData  Vectors="f_60"> 
<DataArray  type="Float64"  Name="f_60"  NumberOfComponents="3" format="ascii">-1.0878901693440157e-04 -3.1642157542288458e-04 0.0000000000000000e+00  6.4103737749725737e-05 6.8099103016127773e-05 0.0000000000000000e+00  5.8845069956317279e-05 7.7256451177504435e-05 0.0000000000000000e+00  1.1603073014371300e-04 1.3817202972621353e-04 0.0000000000000000e+00  5.2915581535335949e-04 5.2321189573038384e-04 0.0000000000000000e+00  3.4923573676670715e-04 4.4715235208255168e-04 0.0000000000000000e+00  -3.6632239113269983e-04 7.8486388430298447e-04 0.0000000000000000e+00  2.4540661217809531e-04 7.8968001187449538e-04 0.0000000000000000e+00  -4.8078223297720526e-04 5.0523816945004902e-04 0.0000000000000000e+00  4.0250264291971915e-04 -8.4944384640340576e-06 0.0000000000000000e+00  8.6248550503568774e-05 4.3580067312846624e-04 0.0000000000000000e+00  -1.7153262882306413e-04 1.2664729402664945e-03 0.0000000000000000e+00  4.5568929584033254e-04 3.2184872801581664e-04 0.0000000000000000e+00  1.3969456535749061e-04 2.9237181523137089e-04 0.0000000000000000e+00  9.3241869761354082e-05 3.3573437962836376e-04 0.0000000000000000e+00  -3.0548687370011833e-04 5.3505574720658197e-04 0.0000000000000000e+00  4.0252061105264649e-04 7.9782771397762613e-04 0.0000000000000000e+00  -2.0707565061310756e-04 3.9169045422283419e-04 0.0000000000000000e+00  1.2097785461723403e-05 4.0293398811029390e-04 0.0000000000000000e+00  -3.1229311580732261e-04 5.4159217202070012e-04 0.0000000000000000e+00  -1.5608660026693896e-04 8.2792023133542131e-04 0.0000000000000000e+00  -6.7654175707262460e-05 3.9507809378882912e-04 0.0000000000000000e+00  -1.3797639277022872e-04 3.0028008699209256e-04 0.0000000000000000e+00  -3.0172595106165654e-04 8.6688405701194958e-04 0.0000000000000000e+00  8.7227307814148597e-05 1.2029461330252927e-03 0.0000000000000000e+00  1.7551849858307581e-04 2.5239747902222018e-04 0.0000000000000000e+00  -4.6971958411398234e-04 -8.2703287855357481e-05 0.0000000000000000e+00  7.7745638366055771e-05 6.4699887773811632e-04 0.0000000000000000e+00  -1.8750944247016951e-04 7.2399692871180199e-04 0.0000000000000000e+00  2.4345402152715239e-04 5.7016381210182724e-04 0.0000000000000000e+00  1.2217502268318500e-04 3.9819700927002711e-04 0.0000000000000000e+00  -4.1617277927292952e-04 6.1595206651900787e-04 0.0000000000000000e+00  -9.5435159162276414e-05 1.9791223852503204e-04 0.0000000000000000e+00  -2.0368481690106115e-06 7.1395307142768538e-05 0.0000000000000000e+00  -4.0277356889056274e-04 3.9669974952380004e-04 0.0000000000000000e+00  -6.7509825797863203e-05 7.8746071406816400e-04 0.0000000000000000e+00  2.5121002330812401e-04 8.5480675929882320e-04 0.0000000000000000e+00  -3.3855810439756940e-04 7.2565887058669527e-05 0.0000000000000000e+00  9.7739353228910145e-05 4.5760750167766595e-04 0.0000000000000000e+00  -3.2648775995344117e-05 6.8253467621166213e-04 0.0000000000000000e+00  4.6427844857687550e-04 5.0110853617349243e-04 0.0000000000000000e+00  7.5832806199802689e-04 1.9339075233626665e-04 0.0000000000000000e+00  -5.3974936013002786e-04 5.4182365232014796e-04 0.0000000000000000e+00  -2.2750702103834717e-04 2.7929622733794762e-04 0.0000000000000000e+00  -1.2992605006176367e-04 1.5012977860174984e-04 0.0000000000000000e+00  -7.8292795121787193e-05 1.7227779167846145e-04 0.0000000000000000e+00  -3.9426687672924089e-05 3.8275038667214743e-04 0.0000000000000000e+00  -9.0853629931359712e-05 3.6951710561655769e-04 0.0000000000000000e+00  1.4599441360787127e-04 6.1616126296152327e-04 0.0000000000000000e+00  -1.5455233767651747e-04 7.0031604834281075e-04 0.0000000000000000e+00  7.3894009237267353e-04 2.8266853275955563e-04 0.0000000000000000e+00  4.8462947149365850e-04 1.5248493158192048e-04 0.0000000000000000e+00  -4.7158176799081265e-04 5.6492281458630654e-04 0.0000000000000000e+00  -1.5835212616244708e-04 3.8762370155951873e-04 0.0000000000000000e+00  1.6992484840324267e-05 9.9723686163743561e-05 0.0000000000000000e+00  2.9613809474990827e-04 2.5100379710639350e-04 0.0000000000000000e+00  4.8687040456936101e-04 5.2808150840786660e-04 0.0000000000000000e+00  2.9059378654700809e-04 5.3578531737529900e-04 0.0000000000000000e+00  -3.5823937640121553e-04 2.2202991078005670e-04 0.0000000000000000e+00  2.6473666187971608e-04 6.5209578761839281e-04 0.0000000000000000e+00  -7.2571141204686527e-05 4.1546009961537512e-04 0.0000000000000000e+00  1.4645226861786792e-05 2.1382763369176929e-04 0.0000000000000000e+00  -2.9329171928650638e-04 1.3482566967049797e-03 0.0000000000000000e+00  -1.2826744834384165e-04 7.5803985791447726e-04 0.0000000000000000e+00  2.2588539677546356e-04 2.3186061754389400e-04 0.0000000000000000e+00  3.2927855735272714e-05 8.7253248323308110e-05 0.0000000000000000e+00  1.4346161222847457e-04 1.8399389455166229e-04 0.0000000000000000e+00  1.0256744653564544e-03 1.2450215437286587e-03 0.0000000000000000e+00  6.2304096022649906e-04 6.0548644489234814e-04 0.0000000000000000e+00  7.0521711570001593e-04 2.8107438915053067e-04 0.0000000000000000e+00  4.5052993403131260e-04 -1.1031517964768458e-04 0.0000000000000000e+00  7.6128520426697172e-04 -1.0760816489462429e-03 0.0000000000000000e+00  -1.5574653988295782e-03 1.3519041058943405e-04 0.0000000000000000e+00  -4.6487614459073491e-05 2.2374410813702054e-03 0.0000000000000000e+00  1.6018392756901403e-03 1.1876000517046495e-03 0.0000000000000000e+00  -1.3079294111394036e-02 2.6117160932180323e-03 0.0000000000000000e+00  3.3023733216226372e-04 3.5938339537853857e-04 0.0000000000000000e+00  -1.8424264258119287e-06 1.4118569893614288e-05 0.0000000000000000e+00  5.3317044667093127e-04 -4.6717775255369998e-05 0.0000000000000000e+00  -1.9437212047771380e-04 -7.9060224411623672e-04 0.0000000000000000e+00  2.9095773592391668e-05 5.5102028375334758e-05 0.0000000000000000e+00  1.6791623608043360e-04 6.1859172829224751e-04 0.0000000000000000e+00  1.1847325607851503e-04 5.5340552665669089e-04 0.0000000000000000e+00  -2.7905732825937057e-04 -2.6533814617194212e-04 0.0000000000000000e+00  5.8712683006082406e-05 -2.2376272185040098e-04 0.0000000000000000e+00  4.6626551478538207e-04 3.1276740738701880e-01 0.0000000000000000e+00  2.2017617543181701e-02 8.7945693876672271e-01 0.0000000000000000e+00  -8.5889327422141535e-03 6.6450516534474924e-01 0.0000000000000000e+00  2.3443700596852360e-01 -7.0502697051967134e-01 0.0000000000000000e+00  -1.3615542911175332e-01 6.8080117755479719e-01 0.0000000000000000e+00  -1.0000770371559455e-03 -6.5863433736145793e-01 0.0000000000000000e+00  3.2387708023696553e-02 -1.1078531241870153e+00 0.0000000000000000e+00  3.5144635914399545e-03 -1.1079739169501850e+00 0.0000000000000000e+00  9.1382953523498075e-05 -6.6720909185367689e-04 0.0000000000000000e+00  4.1426681135653849e-02 1.5554674220060979e-01 0.0000000000000000e+00  2.2592976590851270e-04 -6.4900846501680487e-04 0.0000000000000000e+00  -8.0225474453913063e-06 1.1727173465160003e-05 0.0000000000000000e+00  -2.2073669331547294e-03 -7.8126066478162773e-04 0.0000000000000000e+00  -1.7542020338695265e-04 -7.1909087546919782e-04 0.0000000000000000e+00  1.6220865906492533e-03 -3.7186393187202692e-05 0.0000000000000000e+00  -7.9799915843538526e-05 -4.6976695320522129e-04 0.0000000000000000e+00  3.9098996334764727e-02 6.7982172594712509e-01 0.0000000000000000e+00  -4.8236350651788995e-02 1.0591071611933431e+00 0.0000000000000000e+00  -5.7545070422588523e-02 -5.9254220238089406e-01 0.0000000000000000e+00  1.1974462852508899e-01 -3.6736394907930342e-01 0.0000000000000000e+00  -4.2926458389734863e-02 -8.2193599290388875e-01 0.0000000000000000e+00  2.7453234224134891e-02 -8.3752130660862803e-02 0.0000000000000000e+00  3.5795038807336140e-03 3.0005181324841962e-01 0.0000000000000000e+00  4.5323961695242741e-03 9.1537395459609572e-01 0.0000000000000000e+00  -3.7638626495904479e-02 8.0718952589662485e-01 0.0000000000000000e+00  1.1152294152151949e-02 2.7211605499054728e-02 0.0000000000000000e+00  -2.4323316787645310e-01 9.7768748367031499e-01 0.0000000000000000e+00  -5.8674490254522704e-02 1.1260070308197514e+00 0.0000000000000000e+00  3.0529502126103431e-01 1.2072469537646804e+00 0.0000000000000000e+00  2.2749717947850109e-01 3.6228351706247014e-01 0.0000000000000000e+00  5.6763707203812637e-02 7.0845172969886072e-01 0.0000000000000000e+00  6.3656297385396965e-01 1.4124601315718348e+00 0.0000000000000000e+00  8.9906847066343470e-02 -8.1246724626574540e-01 0.0000000000000000e+00  1.7027740474193776e-04 -4.9961189423488933e-04 0.0000000000000000e+00  -3.0795973167004650e-02 5.3272619112635300e-01 0.0000000000000000e+00  1.0022557604935796e-02 1.2097975184832723e+00 0.0000000000000000e+00  3.7439544767674811e-02 -2.1026820970656313e-01 0.0000000000000000e+00  -6.2330861943630363e-02 -4.8118969982511312e-01 0.0000000000000000e+00  2.8134407439490978e-02 -9.7433580532431008e-01 0.0000000000000000e+00  -6.4679995885379637e-04 -5.8648058964131896e-04 0.0000000000000000e+00  -4.0243945092456818e-01 -6.1653239590803310e-01 0.0000000000000000e+00  -1.8196881848214636e-01 1.0777499913533875e-01 0.0000000000000000e+00  2.8850475100425668e-02 5.0906540362860508e-01 0.0000000000000000e+00  -1.7369063213709506e-02 9.2610330552049913e-01 0.0000000000000000e+00  4.3985073179092136e-02 -6.5124789693133178e-01 0.0000000000000000e+00  2.1964214686426804e-04 -5.5438761465288170e-04 0.0000000000000000e+00  2.6406320391928730e-02 -5.3128819740879285e-01 0.0000000000000000e+00  1.9025245086543571e-02 7.9401640167820742e-01 0.0000000000000000e+00  -9.2200577965807426e-03 -8.2236099580940358e-01 0.0000000000000000e+00  -7.1346520096114877e-02 -8.9235210246413499e-01 0.0000000000000000e+00  -6.6714077231727786e-01 2.5070383575205507e-01 0.0000000000000000e+00  6.5362974124985525e-06 9.1771101084884030e-06 0.0000000000000000e+00  5.4673630733382605e-02 -3.1933232127490641e-01 0.0000000000000000e+00  -1.2596328736664197e-01 1.2397615406759361e+00 0.0000000000000000e+00  3.4327358848802797e-05 -6.4353409731258293e-05 0.0000000000000000e+00  4.9161225917737132e-02 7.7499729259626959e-01 0.0000000000000000e+00  2.2224663865897377e-02 3.5341867062330651e-01 0.0000000000000000e+00  -1.0934122665992575e-02 6.6114534311389028e-01 0.0000000000000000e+00  5.3864963759609516e-04 -7.5657624201048328e-04 0.0000000000000000e+00  2.9646350373412032e-02 -7.9483217496616521e-01 0.0000000000000000e+00  -2.5977031835491132e-02 -1.0918706955448938e+00 0.0000000000000000e+00  2.1491111963557564e-02 -1.0192638928765201e+00 0.0000000000000000e+00  8.5857399544717813e-02 3.5475537212694197e-01 0.0000000000000000e+00  1.9854602398411646e-02 1.1443193939714107e+00 0.0000000000000000e+00  1.9674165146856121e-02 -1.1991696613757841e+00 0.0000000000000000e+00  5.7061368507847335e-02 7.6151045859491462e-01 0.0000000000000000e+00  -9.1893006455797871e-02 -9.1821058876523087e-01 0.0000000000000000e+00  -2.5435123736073005e-02 -8.0492374876393757e-01 0.0000000000000000e+00  -6.3911876409152059e-03 8.9536066870919995e-01 0.0000000000000000e+00  1.0966100843275296e-03 -5.0663553578802155e-05 0.0000000000000000e+00  5.9940205105733736e-04 -8.0189633484695449e-04 0.0000000000000000e+00  -4.4478773280871490e-04 -5.8686492994423315e-04 0.0000000000000000e+00  -2.1338762967399057e-04 -1.9082592975629855e-04 0.0000000000000000e+00  -2.6411051570223039e-04 -4.4598575360949532e-04 0.0000000000000000e+00  1.0487373573494679e-05 1.2285518421804883e-05 0.0000000000000000e+00  2.3805072674881762e-03 -2.2800206822809639e-04 0.0000000000000000e+00  1.0926736147285562e-03 -5.9775808051031553e-04 0.0000000000000000e+00  -5.3122590205335954e-03 -1.1451386529595681e-03 0.0000000000000000e+00  -4.4513818214980905e-02 3.9881459310221412e-01 0.0000000000000000e+00  -8.7865812905725035e-03 -9.0156631097393258e-01 0.0000000000000000e+00  -1.9426735217147405e-02 -1.5185446398616373e-01 0.0000000000000000e+00  -7.8389822471726059e-02 -1.1311587672758554e+00 0.0000000000000000e+00  -8.1047009189920980e-04 6.1499695263834866e-04 0.0000000000000000e+00  -2.7276819983282810e-02 -1.1623715764053872e+00 0.0000000000000000e+00  7.3484041784397658e-03 -5.3325319677961991e-01 0.0000000000000000e+00  6.7772975628245705e-02 2.1920636839512231e-02 0.0000000000000000e+00  1.5714877080583015e-01 9.9672451173956311e-01 0.0000000000000000e+00  1.6604609725758526e-01 -1.0433197637260017e+00 0.0000000000000000e+00  -2.1560423869939466e-02 3.2663099944746449e-01 0.0000000000000000e+00  6.9988029225076756e-02 2.2905621620821068e-01 0.0000000000000000e+00  -8.2041011929253754e-02 -1.0103165497672892e+00 0.0000000000000000e+00  -1.3278796692211720e-01 -3.9232008302840354e-01 0.0000000000000000e+00  -8.8577681512539141e-02 1.0498937812059828e+00 0.0000000000000000e+00  -1.0546733226369391e-01 4.3394696030026081e-01 0.0000000000000000e+00  6.5462634271952647e-02 9.0017370760240689e-01 0.0000000000000000e+00  -4.7049219155620874e-02 1.0022563571553349e+00 0.0000000000000000e+00  -2.7083310417920510e-02 9.2656471072885926e-01 0.0000000000000000e+00  -6.1615065245002702e-03 -8.6250374943178332e-01 0.0000000000000000e+00  -2.8901167162283428e-02 -8.5900823155682871e-01 0.0000000000000000e+00  -9.8796339081851137e-01 -4.0391949985282277e-01 0.0000000000000000e+00  5.7781869456939583e-02 -5.4584847014206994e-01 0.0000000000000000e+00  3.8694437381712476e-01 -6.8642678182906924e-01 0.0000000000000000e+00  -1.3222583126413492e-02 6.2201338380709603e-01 0.0000000000000000e+00  1.3353461669503207e-02 8.4933118954562425e-01 0.0000000000000000e+00  -1.9677811395874420e-02 1.0641786592546461e+00 0.0000000000000000e+00  -4.2892666929830309e-01 3.4728882478519590e-01 0.0000000000000000e+00  4.6427794375885090e-01 -2.1468120858677892e-01 0.0000000000000000e+00  -2.3048066038455269e-02 1.1620314675507193e+00 0.0000000000000000e+00  5.7694734794589253e-02 -8.0394888608460202e-01 0.0000000000000000e+00  4.2675340753134824e-02 -7.5359574869088897e-01 0.0000000000000000e+00  -6.7680674805181626e-02 9.1149337276325271e-01 0.0000000000000000e+00  -2.4404835506891220e-01 2.7275305130491090e-01 0.0000000000000000e+00  -4.8202993422570822e-01 -1.8427933084284423e-01 0.0000000000000000e+00  5.4537098283271079e-02 -1.0585366528310465e+00 0.0000000000000000e+00  3.4269571629831401e-02 -4.2779348803477690e-01 0.0000000000000000e+00  1.1281319576961069e-02 -4.0797533805288050e-01 0.0000000000000000e+00  2.1440260684009629e-02 9.0580731555766392e-01 0.0000000000000000e+00  -1.4614958298973435e-03 -5.8453465523510284e-01 0.0000000000000000e+00  1.1184503511403312e-02 8.5822372902907273e-01 0.0000000000000000e+00  7.4996257459118533e-03 -7.8378736544410701e-02 0.0000000000000000e+00  -1.4618109256022624e-01 1.6839820173968459e-01 0.0000000000000000e+00  6.3871849279237697e-03 -1.0048257626466346e+00 0.0000000000000000e+00  2.0221879583893959e-02 1.1188008660546154e+00 0.0000000000000000e+00  4.0567604119210438e-01 1.6434883417177795e+00 0.0000000000000000e+00  4.9751272070333102e-01 3.6477462411548650e-01 0.0000000000000000e+00  2.3063773672050637e-02 3.7927396697167709e-01 0.0000000000000000e+00  1.6543928905092375e-03 -4.2144116673084708e-01 0.0000000000000000e+00  -3.2677449049338669e-02 7.7736056763496209e-01 0.0000000000000000e+00  1.2681337489073988e-01 8.7812569565408038e-01 0.0000000000000000e+00  1.0249662047356141e-02 6.8711472287213882e-01 0.0000000000000000e+00  1.0316392961287620e-01 5.6094059357689607e-01 0.0000000000000000e+00  -2.7579752436067081e-04 -9.0239129060365497e-01 0.0000000000000000e+00  -8.6975999744300675e-02 1.2916063509587348e+00 0.0000000000000000e+00  1.2691699941282483e-01 1.0447971159532370e+00 0.0000000000000000e+00  -3.9809675447643089e-01 1.7907163095110674e+00 0.0000000000000000e+00  -1.2284012453097928e-02 1.0116814122001803e+00 0.0000000000000000e+00  8.3951211078685112e-02 -3.8356722278212069e-01 0.0000000000000000e+00  -4.0913588945723563e-02 -9.6020674635103154e-01 0.0000000000000000e+00  1.9832321411250098e-01 1.1336131666730673e+00 0.0000000000000000e+00  1.1542850819949851e-01 3.6373038603542268e-01 0.0000000000000000e+00  2.5736110010160890e-01 1.0191164122569496e+00 0.0000000000000000e+00  1.2144146832754582e-02 9.2120206484409928e-01 0.0000000000000000e+00  -4.9005034576635610e-02 -1.1076520166932275e+00 0.0000000000000000e+00  4.0082618677600556e-03 2.8083424904630161e-01 0.0000000000000000e+00  1.3923829014371629e-03 5.3720175197905580e-04 0.0000000000000000e+00  3.6537231276601016e-02 -6.7527145161325763e-01 0.0000000000000000e+00  8.5079647899941903e-04 1.1473507427359075e+00 0.0000000000000000e+00  7.3816595112422623e-01 8.9838606592978418e-02 0.0000000000000000e+00  1.0243085252030051e+00 -5.7636329002239495e-01 0.0000000000000000e+00  3.1229361942296033e-02 1.1381373212531993e+00 0.0000000000000000e+00  -4.8689822385226435e-02 -1.1540569267191318e+00 0.0000000000000000e+00  3.5863413497479249e-02 -9.5016304422441922e-01 0.0000000000000000e+00  2.7643715540265436e-02 1.1395080490849506e-01 0.0000000000000000e+00  8.1595476835263553e-02 5.6615095062506893e-01 0.0000000000000000e+00  6.1589429914213681e-04 -7.4580970188145752e-04 0.0000000000000000e+00  1.9502258915082393e-01 7.5480438337351158e-02 0.0000000000000000e+00  -7.8468519110686891e-02 1.0510181367189193e+00 0.0000000000000000e+00  6.7621293075505823e-02 1.7235712105974943e-01 0.0000000000000000e+00  -1.1968837929661914e-01 4.5037301088531101e-01 0.0000000000000000e+00  6.4062087502474122e-02 -1.0983505342394946e+00 0.0000000000000000e+00  1.2195681742956402e-01 -7.8816632966832068e-01 0.0000000000000000e+00  -4.6136149797064874e-02 6.0017403078223219e-01 0.0000000000000000e+00  4.3106777927339121e-02 -7.3953284201785985e-01 0.0000000000000000e+00  3.7756565467254146e-03 -4.8443743653428323e-01 0.0000000000000000e+00  -4.4358280903082671e-02 8.8803041763489514e-03 0.0000000000000000e+00  2.1648348743656703e-02 -1.1424203237676163e+00 0.0000000000000000e+00  -1.7888078236464028e-01 5.1303326439780461e-01 0.0000000000000000e+00  5.2569707727837156e-01 -5.4112351093694011e-01 0.0000000000000000e+00  -1.1350981158408111e-06 3.9026400982784258e-05 0.0000000000000000e+00  2.6087327225228260e-02 -1.0848719755564435e+00 0.0000000000000000e+00  -2.8418092504446413e-01 9.7081296245619186e-01 0.0000000000000000e+00  -2.1133153098960369e-02 8.9214652638661529e-01 0.0000000000000000e+00  3.1667088284169337e-02 3.5725789405198566e-01 0.0000000000000000e+00  -1.8581750224039095e-01 8.3403180455907178e-01 0.0000000000000000e+00  -8.4092711904306481e-03 8.0275089444351166e-01 0.0000000000000000e+00  -4.8132576198589058e-02 2.4459645868044572e-01 0.0000000000000000e+00  -3.5476902776141678e-03 -9.5032732274114573e-01 0.0000000000000000e+00  1.6008088833111708e-02 -3.8454485427160107e-01 0.0000000000000000e+00  3.2670518283669979e-02 6.4496056867112295e-01 0.0000000000000000e+00  -5.2632765475848897e-03 -1.0616355754561031e+00 0.0000000000000000e+00  3.8288955024669002e-02 5.7823992531773094e-01 0.0000000000000000e+00  -6.2470583076596353e-01 1.4799859497967220e+00 0.0000000000000000e+00  -8.0876082591478304e-01 6.6671030375839535e-01 0.0000000000000000e+00  4.9515757330737771e-02 1.0188285024835608e+00 0.0000000000000000e+00  1.1277485323361005e-02 2.3203719852595991e-01 0.0000000000000000e+00  2.0929984820434684e-02 9.4501308236631731e-01 0.0000000000000000e+00  -4.7161254242277691e-02 -6.3044116613587653e-01 0.0000000000000000e+00  -1.1884946316657395e-02 -4.7402836614384392e-01 0.0000000000000000e+00  1.8303634680080415e-02 -1.1487943770164248e+00 0.0000000000000000e+00  1.3366524135522712e-03 6.4741416798137002e-05 0.0000000000000000e+00  8.3059640749667735e-02 1.2391818756238302e+00 0.0000000000000000e+00  -5.3738474674971302e-02 1.3087535160837021e+00 0.0000000000000000e+00  -2.3017710571102235e-02 1.0978133802653465e+00 0.0000000000000000e+00  1.4886526274504076e-02 -3.3000131177322523e-01 0.0000000000000000e+00  -1.8043813243454328e-04 -6.3624421800230187e-04 0.0000000000000000e+00  1.1298481019939760e-01 1.0495392738520073e+00 0.0000000000000000e+00