<?xml version="1.0"?>
<VTKFile type="UnstructuredGrid"  version="0.1"  >
<UnstructuredGrid>
<Piece  NumberOfPoints="4978" NumberOfCells="9630">
<Points>
<DataArray  type="Float64"  NumberOfComponents="3"  format="ascii">0 1.5 0  0 0 0  0.06190941752361886 0 0  0.06190941752361886 0.02304324263930277 0  0.07687367483109155 0.06663263502519032 0  0.1051805799723963 0.1030013474942385 0  0.1437626405485843 0.128208265731708 0  0.1884388916338735 0.1395218290209338 0  0.2343679681997119 0.1357160372315063 0  0.2765727421371398 0.117203306956754 0  0.3104796713154951 0.0859897797765535 0  0.3324144138380889 0.04545792568865569 0  0.34 0 0  0.4722134970410927 0 0  0.4722134970410927 0.02388743731615415 0  0.4894717723551502 0.0684361811740563 0  0.5216574972706967 0.1037422395464312 0  0.5644238112906292 0.1250373336124665 0  0.6119948867302293 0.1294454429183545 0  0.6579459862509499 0.1163712278761581 0  0.6960711592386857 0.08758043367405244 0  0.7212213898225662 0.04696141660432988 0  0.73 0 0  0.85 0 0  0.857341522555727 0.04635254915624212 0  0.8786474508437579 0.08816778784387098 0  0.9118322121561291 0.1213525491562421 0  0.9536474508437579 0.142658477444273 0  1 0.15 0  1.046352549156242 0.142658477444273 0  1.088167787843871 0.1213525491562421 0  1.121352549156242 0.08816778784387097 0  1.142658477444273 0.04635254915624211 0  1.15 0 0  1.461909417523619 0 0  1.461909417523619 0.02304324263930277 0  1.476873674831092 0.06663263502519032 0  1.505180579972396 0.1030013474942385 0  1.543762640548584 0.128208265731708 0  1.588438891633874 0.1395218290209338 0  1.634367968199712 0.1357160372315063 0  1.67657274213714 0.117203306956754 0  1.710479671315495 0.0859897797765535 0  1.732414413838089 0.04545792568865569 0  1.74 0 0  1.78 0 0  1.789134456098646 0.04592201188381079 0  1.815147186257614 0.08485281374238571 0  1.854077988116189 0.1108655439013544 0  1.9 0.12 0  1.945922011883811 0.1108655439013544 0  1.984852813742386 0.08485281374238569 0  2.010865543901355 0.04592201188381077 0  2.02 0 0  2.161909417523619 0 0  2.161909417523619 0.02304324263930277 0  2.176873674831092 0.06663263502519032 0  2.205180579972396 0.1030013474942385 0  2.243762640548584 0.128208265731708 0  2.288438891633873 0.1395218290209338 0  2.334367968199712 0.1357160372315063 0  2.37657274213714 0.117203306956754 0  2.410479671315495 0.0859897797765535 0  2.432414413838089 0.04545792568865569 0  2.44 0 0  2.472213497041093 0 0  2.472213497041093 0.02388743731615415 0  2.48947177235515 0.0684361811740563 0  2.521657497270697 0.1037422395464312 0  2.564423811290629 0.1250373336124665 0  2.611994886730229 0.1294454429183545 0  2.65794598625095 0.1163712278761581 0  2.696071159238686 0.08758043367405244 0  2.721221389822567 0.04696141660432988 0  2.73 0 0  3 0 0  3 1.5 0  0 0.75 0  3 0.75 0  1.5 1.5 0  0 0.375 0  0 0.1875 0  0 0.09375 0  0.75 1.5 0  2.25 1.5 0  1.137279452465634 0.8667483509386543 0  2.055384907633385 0.8149748422668953 0  0.5545701656450307 0.9454298343549693 0  2.545804583542266 1.045804583542266 0  2.462951104370831 0.5854482317237805 0  1.6063536999151 1.018574336065804 0  0.7683179692414909 0.5511078775270282 0  1.647896012796697 0.5780189144999826 0  1.875 1.5 0  0.3683226130580748 0.5893782185394094 0  0.375 1.5 0  0 1.125 0  3 0.375 0  1.125 1.5 0  3 1.125 0  2.625 1.5 0  1.247216233241016 0.4851891764902285 0  0.8779404074027722 1.143194262378568 0  1.992337703792022 0.4642129848858538 0  2.200035536160075 1.144037289792772 0  1.3125 1.206118267007311 0  1.882280687299076 1.18026905614258 0  0.8375010042452264 0.8437030129736524 0  0.2703628106324028 0.8673582108832857 0  0.336944444033578 1.181320038574892 0  1.424720841531434 0.7792108746582741 0  2.763716218670896 0.5625 0  0.6112325230261646 1.216037756380734 0  2.429292395855053 1.293345775631689 0  2.798691155259055 0.9375 0  2.340750225085827 0.8450755885956063 0  2.74506315455788 1.24506315455788 0  0.4115012634770826 0.3359864655288552 0  1.6875 1.5 0  1.553212834656815 1.259295117559057 0  1.783849920010049 0.8130750647527071 0  2.590242300399914 0.800172794523538 0  2.206538789959823 0.6067588023913982 0  1.022769083327432 0.627137676743421 0  2.0625 1.5 0  2.566013274303806 0.3667751817948443 0  2.317230353528816 0.3853650267397287 0  0.9546600707351991 0.3912757388497677 0  1.76490060939521 0.3540000691256479 0  1.398169292756645 0.3089248951275104 0  0.1875 1.5 0  0.6961815191548208 0.3380429757712475 0  0.6390751493076395 0.7361434669345621 0  1.385952842918209 0.9972233609662619 0  1.082019261833385 1.265823315390121 0  2.784258672215756 0.3048233224522298 0  0 0.5625 0  0.2130557952202133 0.4325455696870932 0  2.110276358430479 0.2903936515686117 0  0 1.3125 0  0.5618175915722093 0.5022778936897083 0  1.438605690073396 0.5702366817214194 0  1.851778102902867 0.6169409446553686 0  0.9375 1.5 0  1.918499765346388 0.9737703250858507 0  1.066617221574711 1.060327143126178 0  0.17830064634795 0.65625 0  1.139464543633635 0.3182162642668528 0  1.214887260891528 0.6824917486258804 0  0.4470960700565646 0.7803305254813445 0  2.056073894593081 1.292965518236122 0  0.7800417460951754 1.309431349558015 0  0.7102942521579887 1.054059105222724 0  2.772203778896419 0.7508393899039921 0  3 0.9375 0  2.4375 1.5 0  0.5625 1.5 0  3 0.5625 0  1.3125 1.5 0  0 0.9375 0  3 1.3125 0  2.8125 1.5 0  3 0.1875 0  1.74009613212014 1.312845810865967 0  0.1858279553328271 1.04932632064409 0  1.582414108002925 0.3243096672004901 0  0.4576542986122824 1.328517530191622 0  1.30595470876181 0 0  0.1616828829631953 1.229471150973137 0  1.600689448835705 0.8342777580615786 0  2.184954406689295 0.9543424310663166 0  2.356848459734244 1.033731425282726 0  2.249618867339344 1.318565528322325 0  2.031012140730151 0.6383085966483963 0  1.264473591492607 0.1926369230867345 0  1.93294708275428 0.2969945700235964 0  1.406271966518558 1.353045118606616 0  0.2855042944080262 1.351202341158466 0  2.163692386827529 0.4469681835123645 0  2.058709899218631 1.05982604745508 0  1.21875 1.361760465218127 0  1.232585115983139 1.060656719142284 0  1.682328919476849 1.161572426192166 0  0.4864612871934715 1.100927295036068 0  2.842393003195402 0.1547034389615206 0  1.901710724058898 1.340659870484523 0  2.578488906869203 1.212378831230944 0  0.346730023619794 1.013455011579226 0  1.758789788261688 0.970834021568154 0  0.9209577900333827 0.984909924281538 0  2.461973640748163 0.2490632223012221 0  2.833434714842781 1.102015011431888 0  1.485476187845101 1.118115752354218 0  0.7869575052851041 0.2127716822913992 0  1.091585464669657 0.4673676525872368 0  0.9308375558444295 1.286291202675726 0  2.609275627299536 0.5207885309723005 0  2.859418780372727 0.4404724026784034 0  0.1368795735450182 0.2913992261536034 0  0.5088670694303536 0.6431238265444117 0  0.9924988599062848 0.7887715626383616 0  0.8674753477047706 0.6821390867986818 0  0.6993572585883594 0.9038049302516018 0  1.53924450853783 0.6818717864694561 0  1.27954362181495 0.818196911265721 0  2.885754890315292 0.65625 0  0.1199579452929171 0.84375 0  0.3101130847613819 0.7251157056441525 0  2.683488575489726 1.10528265125029 0  2.637912450120847 1.350340704724588 0  0.65625 1.387568746661148 0  2.204969505432462 0.7645924845263576 0  2.34230217156612 0.6870332922078795 0  2.458336421316689 0.930056573232228 0  1.547170662421109 0.4687109428674099 0  0.55426355401875 0.2785752421136156 0  1.927690911684502 0.7425770788416013 0  2.650983472818039 0.6639703826486528 0  0.2807744135836687 0.2731407085328489 0  2.697063502273202 0.4130460425434029 0  1.768721210125562 0.4985606178023466 0  1.59375 1.394491048145999 0  1.03125 1.39617417476255 0  2.649124789533757 0.9376608889715211 0  2.899345577629528 0.84375 0  2.448792339301353 1.151333513094988 0  2.455516477512143 0.7671738041202795 0  0.1479512725554237 1.367277900867101 0  1.733007556765436 0.6856365299097277 0  2.865 0 0  0.407900401917371 0.1920322062602331 0  1.482893533441057 0.9020086108979886 0  2.902194538181383 1.21875 0  2.860324471164851 1.360324471164851 0  0.9128790560808855 0.5311054613533476 0  0.7396036279203969 1.183264973390871 0  1.379392725427689 0.4456149894503371 0  0.8305263666170877 0.339868595109382 0  2.352639297837627 1.399880277695907 0  2.15625 1.5 0  2.32277762299786 1.203473773731512 0  1.818471673600783 0.235727380341035 0  1.269129800285538 0.3222823294390822 0  2.329228807632851 0.5297324129610972 0  0.430777275012463 0.469645907614299 0  1.390502090335328 0.1630587681988043 0  1.149408636841162 1.157447166816889 0  1.687853147042319 0.2519031106491252 0  0.3941048876243997 0.8956837842542459 0  1.877835046604575 0.410724628626283 0  1.348230251479045 0.6691802479050837 0  2.336954765206726 0.2613063289913201 0  2.514033953321691 1.393470229958569 0  0 0.46875 0  0.1287800079303892 0.5340043503292357 0  2.441328451749267 0.3721441168812449 0  0.9333932382689634 0.2670516659043625 0  1.13959172768211 0.5827503401695603 0  0.8703665929291606 1.395134656069543 0  1.240468926246127 0.9364063612525604 0  1.433475419570003 1.229904687600933 0  1.020534477629395 0.9101139083191684 0  1.108777781305164 0.7462713331880694 0  0.6468125623079457 0.6038935958199032 0  1.665312060212151 0.428962863572448 0  0.2512528931669099 0.5500044694745148 0  2.66971919386773 0.2450375495263612 0  2.901855502368762 0.2640467328343441 0  2.063534245742155 0.9373123558679215 0  2.031795413587333 0.1972457754676831 0  1.836924180675512 1.065887991891963 0  1.001601941364679 1.16852535211421 0  0.8051266927803291 0.9581030042697194 0  0.7620228346493961 0.7461373576581022 0  3 1.03125 0  2.084817260746984 1.176705869274554 0  2.085981885570153 0.5347538843754811 0  1.496744890324478 0.239335226969819 0  1.894594308711337 0.8570406362709689 0  1.78125 1.5 0  2.109375 1.394928085212741 0  2.71875 1.5 0  0.4943575340553394 1.217544978302146 0  0.5937185858435849 1.055241883498284 0  2.227680725187669 0.3075299344665331 0  0.5158109084499103 0.3891628929402524 0  1.96875 1.5 0  0.6036564600183
[...]
<PointData  Vectors="f_60"> 
<DataArray  type="Float64"  Name="f_60"  NumberOfComponents="3" format="ascii">8.1132005248472699e-04 4.9522194545133279e-04 0.0000000000000000e+00  -1.2320005463185694e-03 1.0321873737926845e-03 0.0000000000000000e+00  6.8614241456447774e-04 2.1433557746382416e-03 0.0000000000000000e+00  1.4395069386224561e-03 2.6912048847406132e-03 0.0000000000000000e+00  1.0392486541579880e-03 1.3711449243327175e-03 0.0000000000000000e+00  8.1669815255697078e-04 6.1720767274655458e-04 0.0000000000000000e+00  2.8050255297815433e-04 6.1380960111897021e-05 0.0000000000000000e+00  3.0393120653332409e-04 9.9038273935155175e-06 0.0000000000000000e+00  -2.9321727298136339e-04 4.1159756283521565e-04 0.0000000000000000e+00  2.3423221264472574e-04 8.3995916017449545e-04 0.0000000000000000e+00  4.6696278403575339e-04 3.5243917651669212e-04 0.0000000000000000e+00  9.9984160007686126e-04 1.0350236959869841e-03 0.0000000000000000e+00  -2.2172967038502954e-04 -1.8847330737107504e-03 0.0000000000000000e+00  1.6350256340171910e-04 5.9557870782534937e-04 0.0000000000000000e+00  4.6157687142200912e-05 4.6899363460291613e-04 0.0000000000000000e+00  2.6932165959495375e-05 1.8092459335733593e-04 0.0000000000000000e+00  -1.5722115680441435e-04 4.3582819474054474e-04 0.0000000000000000e+00  -4.8784788004559864e-04 6.4338664193637225e-04 0.0000000000000000e+00  1.9383450716046270e-04 9.2138404037094999e-04 0.0000000000000000e+00  4.1210280804972822e-04 9.4980112839303688e-04 0.0000000000000000e+00  2.3283960725326675e-04 4.3994610578325448e-04 0.0000000000000000e+00  -4.6640778561428883e-05 1.0610084582107112e-04 0.0000000000000000e+00  2.4706426880095786e-05 6.1941476590128604e-05 0.0000000000000000e+00  -7.4115755156221852e-04 1.4427307707675380e-03 0.0000000000000000e+00  -6.1480822394185139e-04 1.2068486704880522e-03 0.0000000000000000e+00  -7.6822500357628866e-04 5.5590545998632603e-04 0.0000000000000000e+00  -5.6623146016803523e-04 9.5118172731148616e-04 0.0000000000000000e+00  4.1583410835357429e-04 4.1245846603178769e-04 0.0000000000000000e+00  1.6850756621433755e-04 -6.9464146394509766e-05 0.0000000000000000e+00  -1.2315161609622924e-04 -3.4444768313438278e-04 0.0000000000000000e+00  -2.5691757466488096e-04 1.0663775139920426e-06 0.0000000000000000e+00  -2.9066058099849659e-04 3.2960633777492254e-04 0.0000000000000000e+00  8.6939183480226568e-04 1.8533956124406326e-03 0.0000000000000000e+00  9.1357331931128096e-04 3.1240373318450164e-03 0.0000000000000000e+00  5.6877995778927752e-04 -1.2170227050552708e-03 0.0000000000000000e+00  3.6933685861462352e-04 -6.0710167672889479e-04 0.0000000000000000e+00  -5.0424326219978069e-04 6.1079660538682968e-04 0.0000000000000000e+00  -2.2217893787370493e-04 2.8291123467360352e-04 0.0000000000000000e+00  2.4148956343200941e-04 3.2186535613938118e-04 0.0000000000000000e+00  1.2144594104477758e-04 4.0221432096078510e-04 0.0000000000000000e+00  -1.0624298984306521e-04 -4.2955840968344165e-04 0.0000000000000000e+00  -3.5969938801623183e-04 -3.9198314088252699e-04 0.0000000000000000e+00  -5.5757007929284688e-04 1.2648189015240969e-03 0.0000000000000000e+00  3.2909463269940235e-04 2.3335528455823468e-03 0.0000000000000000e+00  3.4300924508102646e-04 2.3935259718167825e-03 0.0000000000000000e+00  3.8875183391113855e-04 2.3537980819860744e-03 0.0000000000000000e+00  1.6008648133249913e-04 1.9574467035712584e-03 0.0000000000000000e+00  -1.7338378557580297e-04 1.2772873887266381e-03 0.0000000000000000e+00  6.1094712788336278e-04 4.5061328190522458e-04 0.0000000000000000e+00  3.7913121002595247e-04 9.0059324888766551e-05 0.0000000000000000e+00  -2.8511136874305828e-04 -4.9999762801840623e-04 0.0000000000000000e+00  -5.4887110092881146e-04 -2.4200285992901252e-04 0.0000000000000000e+00  3.2491732426321434e-05 1.4128651654945251e-03 0.0000000000000000e+00  2.0659499400643648e-04 7.6704987224930513e-04 0.0000000000000000e+00  -7.3697942326732930e-04 1.3636174526892612e-03 0.0000000000000000e+00  -3.7245297213937893e-04 1.3556814977327058e-03 0.0000000000000000e+00  1.6863305286217239e-04 8.1687488300522752e-04 0.0000000000000000e+00  3.1025088760930407e-04 1.0607425080773984e-04 0.0000000000000000e+00  1.4172185980410037e-04 -3.8206756858902405e-04 0.0000000000000000e+00  -2.3691478914595053e-04 2.7857530744831294e-04 0.0000000000000000e+00  -9.5818498284489567e-05 6.3934704565463834e-04 0.0000000000000000e+00  -7.3331806575043686e-05 1.0093000491339249e-03 0.0000000000000000e+00  5.8770509231144288e-04 2.0565723854899941e-03 0.0000000000000000e+00  6.0696363973815532e-04 2.8084934651359385e-03 0.0000000000000000e+00  1.3795513556520370e-03 2.2998387019486253e-03 0.0000000000000000e+00  1.2746624548732209e-03 1.8241669941221346e-03 0.0000000000000000e+00  1.6299985132300777e-03 1.8912946359815601e-03 0.0000000000000000e+00  6.7461744572916156e-04 1.6890285391244931e-03 0.0000000000000000e+00  5.4443592055431259e-04 4.7383357933988401e-04 0.0000000000000000e+00  2.0492962667131371e-04 -1.0872319378262262e-04 0.0000000000000000e+00  -3.5965042315387293e-04 1.5517903359231841e-04 0.0000000000000000e+00  7.0851276864737357e-05 5.6157064711388413e-04 0.0000000000000000e+00  4.0902620694635751e-04 5.6956215846177096e-04 0.0000000000000000e+00  6.4850531067818951e-04 1.3281163660286211e-03 0.0000000000000000e+00  1.3339444044337709e-03 2.8262548690610699e-03 0.0000000000000000e+00  -3.9179938483851156e-04 1.3910662302386390e-03 0.0000000000000000e+00  -2.8644792018545659e-04 1.6102972084416644e-03 0.0000000000000000e+00  1.6584599400130794e-04 2.2989822448845373e-05 0.0000000000000000e+00  1.8466282584547386e-04 -2.1002539866896077e-05 0.0000000000000000e+00  1.6582863068211086e-04 1.9919561821717222e-03 0.0000000000000000e+00  7.7047862432730560e-05 3.6234814314997559e-05 0.0000000000000000e+00  1.8958727049738308e-04 5.0919440164584205e-04 0.0000000000000000e+00  5.5687435305745063e-04 1.7414025322875384e-03 0.0000000000000000e+00  -7.6651739191772701e-05 -5.6569742510213707e-04 0.0000000000000000e+00  1.3192805129659996e-05 -7.4324043365644966e-04 0.0000000000000000e+00  2.1844297423190314e-04 5.3060741331622231e-02 0.0000000000000000e+00  3.1011255685169607e-03 1.5102034051429034e-01 0.0000000000000000e+00  -9.9757362279368714e-04 1.1217405150748402e-01 0.0000000000000000e+00  4.2344944530896787e-02 -1.1918341022701130e-01 0.0000000000000000e+00  -2.3375538815762046e-02 1.2580596220139956e-01 0.0000000000000000e+00  1.9391963458857906e-05 -1.1129289528126822e-01 0.0000000000000000e+00  5.2997295528338911e-03 -1.8737747697851023e-01 0.0000000000000000e+00  4.1357909403993856e-04 -1.8776743639546828e-01 0.0000000000000000e+00  -4.2526875913182692e-04 8.2180503023934748e-04 0.0000000000000000e+00  6.6723897187331285e-03 2.3019295365058551e-02 0.0000000000000000e+00  -5.8285202324392525e-04 6.8543889599295628e-04 0.0000000000000000e+00  1.7626192657271752e-04 6.6198358924716072e-05 0.0000000000000000e+00  -1.1804957057592063e-04 -1.2626707390044244e-04 0.0000000000000000e+00  5.1856619949276392e-04 4.7977006251865916e-04 0.0000000000000000e+00  8.9098810891236101e-04 1.3324989700754596e-04 0.0000000000000000e+00  4.6643780046007842e-04 8.1097713973753694e-05 0.0000000000000000e+00  6.8890044013432171e-03 1.1289304611041993e-01 0.0000000000000000e+00  -7.3281674545494458e-03 1.7821190545735477e-01 0.0000000000000000e+00  -9.9859483686958808e-03 -1.0302210396243888e-01 0.0000000000000000e+00  2.1037385926996364e-02 -6.7698292122101336e-02 0.0000000000000000e+00  -7.2369120610319511e-03 -1.3725490312852504e-01 0.0000000000000000e+00  5.0574894246613522e-03 -1.5233169590010663e-02 0.0000000000000000e+00  7.4550719601047311e-04 5.0730919983140145e-02 0.0000000000000000e+00  1.2160095050585001e-03 1.5482585120863637e-01 0.0000000000000000e+00  -5.3936594424568041e-03 1.3797822783116992e-01 0.0000000000000000e+00  1.6983171808057998e-03 5.4756254333298967e-03 0.0000000000000000e+00  -4.1531810804425133e-02 1.8152789392878679e-01 0.0000000000000000e+00  -8.7661672952007458e-03 1.9167703664604147e-01 0.0000000000000000e+00  5.2267067666620828e-02 1.9455434090066501e-01 0.0000000000000000e+00  4.0514251382578310e-02 5.0783553082402705e-02 0.0000000000000000e+00  9.0535143910581879e-03 1.2387918158359362e-01 0.0000000000000000e+00  1.0848403105769394e-01 2.1276090763979391e-01 0.0000000000000000e+00  1.3871803723825588e-02 -1.4257983015741540e-01 0.0000000000000000e+00  4.4890215194247780e-04 3.8721001569679239e-05 0.0000000000000000e+00  -4.8097359348789189e-03 9.2405799838627109e-02 0.0000000000000000e+00  1.5630472794526578e-03 2.0565181729730087e-01 0.0000000000000000e+00  7.9685865281174367e-03 -3.2699451052748248e-02 0.0000000000000000e+00  -9.8629034567758178e-03 -7.8492721520335956e-02 0.0000000000000000e+00  4.4071199016591182e-03 -1.6609423615092783e-01 0.0000000000000000e+00  3.1267487122196662e-04 1.1164794388500391e-03 0.0000000000000000e+00  -6.7086813626500999e-02 -1.1551300653779882e-01 0.0000000000000000e+00  -3.1445988393231226e-02 7.9293589074742755e-03 0.0000000000000000e+00  4.4366847496351489e-03 8.4720049136425765e-02 0.0000000000000000e+00  -3.4400204838613418e-03 1.5676853684954051e-01 0.0000000000000000e+00  6.6370626050946289e-03 -1.0936419440108222e-01 0.0000000000000000e+00  3.0886843672257668e-04 1.4365110875382228e-04 0.0000000000000000e+00  4.3639612574426978e-03 -9.2042018035760453e-02 0.0000000000000000e+00  3.3467317012918188e-03 1.3344742197895923e-01 0.0000000000000000e+00  -1.7250022247239003e-03 -1.3993856502441684e-01 0.0000000000000000e+00  -1.1983052580301089e-02 -1.5389375374152856e-01 0.0000000000000000e+00  -1.0817710225049960e-01 8.2592841151735347e-02 0.0000000000000000e+00  1.0690446691603453e-04 4.6486191358944588e-05 0.0000000000000000e+00  8.9327165328313262e-03 -5.1498163497159750e-02 0.0000000000000000e+00  -2.2530692775485792e-02 2.1346919811973414e-01 0.0000000000000000e+00  8.5112313990458343e-05 1.3053075749024372e-04 0.0000000000000000e+00  7.9009632517964383e-03 1.3354712777218206e-01 0.0000000000000000e+00  3.2259146683660663e-03 6.1155425015748582e-02 0.0000000000000000e+00  -2.1212169060289012e-03 1.1343527901902022e-01 0.0000000000000000e+00  -5.2700485783213917e-04 1.0599419739308626e-03 0.0000000000000000e+00  5.4710254837688757e-03 -1.3514275043835472e-01 0.0000000000000000e+00  -4.5579164281201083e-03 -1.8586499044938409e-01 0.0000000000000000e+00  3.4871762654181534e-03 -1.7254571896456258e-01 0.0000000000000000e+00  1.4435759887267786e-02 6.4676666864578444e-02 0.0000000000000000e+00  3.5900869314305999e-03 1.9349393418876082e-01 0.0000000000000000e+00  2.9095400318903241e-03 -2.0388843993473926e-01 0.0000000000000000e+00  1.0972567229236991e-02 1.3266355469330438e-01 0.0000000000000000e+00  -1.5375201120203828e-02 -1.5880386402591437e-01 0.0000000000000000e+00  -4.3437157502810115e-03 -1.3558838705607612e-01 0.0000000000000000e+00  -8.2673724262052569e-04 1.5333233937233240e-01 0.0000000000000000e+00  4.1731266840435002e-04 -9.6542055771032159e-05 0.0000000000000000e+00  2.7748694707914553e-05 1.1700683111570446e-03 0.0000000000000000e+00  1.9537896151420681e-04 1.4032788776016420e-03 0.0000000000000000e+00  4.6695083785972212e-05 -2.7039883903046693e-05 0.0000000000000000e+00  -3.4295844135651512e-04 7.7766682103026473e-05 0.0000000000000000e+00  5.5925070747894634e-05 1.4897362255268198e-05 0.0000000000000000e+00  1.1854020964650988e-03 -3.3872215079576819e-04 0.0000000000000000e+00  1.6405141735495221e-05 7.1380394848161204e-05 0.0000000000000000e+00  -8.7717645394816841e-05 -6.9404234584859704e-05 0.0000000000000000e+00  -6.4058997823942029e-03 6.6472398862137280e-02 0.0000000000000000e+00  -1.1839314684826993e-03 -1.5430994543732182e-01 0.0000000000000000e+00  -3.2976592935640972e-03 -2.5108160113838079e-02 0.0000000000000000e+00  -1.2897684803934007e-02 -1.9356702436252038e-01 0.0000000000000000e+00  1.7419764697421391e-04 3.5087433217355536e-04 0.0000000000000000e+00  -4.3729362222689862e-03 -1.9903644375917062e-01 0.0000000000000000e+00  1.1566886332646552e-03 -9.0704729051728175e-02 0.0000000000000000e+00  1.2535870168647262e-02 7.0222735153943822e-04 0.0000000000000000e+00  2.5718649754877931e-02 1.7633110259974780e-01 0.0000000000000000e+00  2.8679434218619269e-02 -1.7500946289533342e-01 0.0000000000000000e+00  -4.3016769592533772e-03 5.4745537910696106e-02 0.0000000000000000e+00  1.0383035240408926e-02 3.3754264783804208e-02 0.0000000000000000e+00  -1.3956098983308615e-02 -1.7086309333653601e-01 0.0000000000000000e+00  -2.1541249944712473e-02 -7.1574677746700927e-02 0.0000000000000000e+00  -1.4035413726429415e-02 1.7841630299681949e-01 0.0000000000000000e+00  -1.8454753823545313e-02 8.0907203310252807e-02 0.0000000000000000e+00  1.0874450526564546e-02 1.5612316276511501e-01 0.0000000000000000e+00  -8.6832303043854475e-03 1.7296128861964735e-01 0.0000000000000000e+00  -4.0109169614148763e-03 1.5826087118492604e-01 0.0000000000000000e+00  -9.3493808252733844e-04 -1.4617197147215957e-01 0.0000000000000000e+00  -4.7337124073922815e-03 -1.4747726165785785e-01 0.0000000000000000e+00  -1.6761470832949893e-01 -7.5603222799149716e-02 0.0000000000000000e+00  9.5935787639134865e-03 -9.3179482505244049e-02 0.0000000000000000e+00  6.7594596461389864e-02 -1.0064228764191008e-01 0.0000000000000000e+00  -1.7450645444467832e-03 1.0558005017560247e-01 0.0000000000000000e+00  2.2291556902541755e-03 1.4447254401606688e-01 0.0000000000000000e+00  -2.7408070972074041e-03 1.8079464258656511e-01 0.0000000000000000e+00  -7.4810853762638879e-02 8.2738650579392115e-02 0.0000000000000000e+00  8.3176013289187639e-02 -4.5507644172775072e-02 0.0000000000000000e+00  -3.3821021454502973e-03 1.9633747946972283e-01 0.0000000000000000e+00  7.8739844248257012e-03 -1.3769326195748510e-01 0.0000000000000000e+00  7.0622837760086756e-03 -1.2549877890595332e-01 0.0000000000000000e+00  -1.0692290215329957e-02 1.5747468350805122e-01 0.0000000000000000e+00  -4.0494026715382478e-02 3.2112262480751025e-02 0.0000000000000000e+00  -7.6193817468151431e-02 -4.0143617590286389e-02 0.0000000000000000e+00  8.4362162815946173e-03 -1.8223053464158509e-01 0.0000000000000000e+00  5.4689933547761947e-03 -7.0948884969848677e-02 0.0000000000000000e+00  1.7755236334282345e-03 -6.9917906629466203e-02 0.0000000000000000e+00  3.6901149679072595e-03 1.5418247503793031e-01 0.0000000000000000e+00  -3.9549142805950672e-04 -9.9138549343835508e-02 0.0000000000000000e+00  1.9065786116299478e-03 1.4534409483616628e-01 0.0000000000000000e+00  1.3029264547230305e-03 -1.3747486350302610e-02 0.0000000000000000e+00  -2.2478748180212074e-02 2.1905201202794919e-02 0.0000000000000000e+00  9.0191524511032428e-04 -1.7118682338853533e-01 0.0000000000000000e+00  3.6794629159664174e-03 1.8870238804567016e-01 0.0000000000000000e+00  6.5330688241548029e-02 2.8807820472968299e-01 0.0000000000000000e+00  8.6822531763954602e-02 9.3211689991777272e-02 0.0000000000000000e+00  2.5806212858927612e-03 7.0038051320992445e-02 0.0000000000000000e+00  1.1135714484137743e-03 -7.1297205182579981e-02 0.0000000000000000e+00  -6.3837914561079099e-03 1.3020709672678327e-01 0.0000000000000000e+00  2.0906180064838270e-02 1.4288358996775513e-01 0.0000000000000000e+00  1.3313107747289614e-03 1.1652390344889806e-01 0.0000000000000000e+00  1.6020305206765402e-02 9.9884855582762042e-02 0.0000000000000000e+00  1.5692430043077905e-05 -1.5252465434174214e-01 0.0000000000000000e+00  -1.7365361873723197e-02 2.1366768464774774e-01 0.0000000000000000e+00  2.0403828332914875e-02 1.7849793930163871e-01 0.0000000000000000e+00  -6.9834849793789677e-02 3.0586079918967363e-01 0.0000000000000000e+00  -2.6573764625428000e-03 1.7154315520906127e-01 0.0000000000000000e+00  1.0815993396383693e-02 -6.4700977788031383e-02 0.0000000000000000e+00  -7.9295240911415304e-03 -1.6251346460495880e-01 0.0000000000000000e+00  3.1383470317979112e-02 2.0225293794115351e-01 0.0000000000000000e+00  2.0800065812980498e-02 6.7511220114076537e-02 0.0000000000000000e+00  4.3930691296373933e-02 1.6077772930058071e-01 0.0000000000000000e+00  1.8979378395862095e-03 1.5687098399864111e-01 0.0000000000000000e+00  -5.2916133260482532e-03 -1.8841491542050820e-01 0.0000000000000000e+00  4.3220791161577656e-04 4.8089165212629528e-02 0.0000000000000000e+00  -3.5719057916920149e-04 1.7341785917646254e-04 0.0000000000000000e+00  6.9441061873749240e-03 -1.2074559734835220e-01 0.0000000000000000e+00  3.4650045441536630e-04 1.9455484311277729e-01 0.0000000000000000e+00  1.2618906934003477e-01 6.0131635095848318e-02 0.0000000000000000e+00  1.7961700608988199e-01 -8.5136948164394266e-02 0.0000000000000000e+00  5.0863615378311574e-03 1.9227408628506704e-01 0.0000000000000000e+00  -8.2939999533062636e-03 -1.9527977562258592e-01 0.0000000000000000e+00  5.3672640870687741e-03 -1.6074232324689960e-01 0.0000000000000000e+00  4.2565809637705914e-03 2.0396476476979085e-02 0.0000000000000000e+00  1.9505141022695599e-02 1.0590523042921646e-01 0.0000000000000000e+00  -3.2366886145198829e-04 1.3473212140963976e-03 0.0000000000000000e+00  3.3627298999605017e-02 2.6426442368518814e-02 0.0000000000000000e+00  -1.2549739506289822e-02 1.8076453785257052e-01 0.0000000000000000e+00  1.1161057386072726e-02 2.4191736645932643e-02 0.0000000000000000e+00  -2.0446384151320492e-02 7.0302603345454559e-02 0.0000000000000000e+00  9.7734755846112225e-03 -1.8835813373482516e-01 0.0000000000000000e+00  1.9751479867341545e-02 -1.3284670649456615e-01 0.0000000000000000e+00  -7.3205576093351033e-03 9.9253061210303625e-02 0.0000000000000000e+00  5.1704231066471238e-03 -1.2632238791610234e-01 0.0000000000000000e+00  6.1166368345449843e-04 -8.2839319042245868e-02 0.0000000000000000e+00  -7.8278392159952855e-03 4.3292747122797431e-03 0.0000000000000000e+00  3.3560680970960645e-03 -1.9403601215765923e-01 0.0000000000000000e+00  -3.1310218191364710e-02 7.5718903787170305e-02 0.0000000000000000e+00  8.5776096315797593e-02 -1.0747109657454552e-01 0.0000000000000000e+00  1.5504162236902431e-04 4.9387727835278653e-05 0.0000000000000000e+00  3.7498145522713955e-03 -1.8505037922021458e-01 0.0000000000000000e+00  -4.8884738605460505e-02 1.8130050616203580e-01 0.0000000000000000e+00  -3.3473992779748077e-03 1.4918686813925119e-01 0.0000000000000000e+00  5.3367496319414436e-03 6.2411756841292756e-02 0.0000000000000000e+00  -3.0660859306867960e-02 1.3996905193036471e-01 0.0000000000000000e+00  -1.1041916005642724e-03 1.3634009408180159e-01 0.0000000000000000e+00  -7.5976411591864865e-03 3.8800986414145686e-02 0.0000000000000000e+00  -7.7923356111805702e-04 -1.6101808802619302e-01 0.0000000000000000e+00  2.5790782825108405e-03 -6.4362719544189873e-02 0.0000000000000000e+00  5.5224102800549985e-03 1.0759027683034188e-01 0.0000000000000000e+00  -1.3075461029350378e-03 -1.7988693658756330e-01 0.0000000000000000e+00  6.3205446092711431e-03 9.9200226521768672e-02 0.0000000000000000e+00  -1.0825382639918203e-01 2.3624170827835825e-01 0.0000000000000000e+00  -1.3652018899101120e-01 6.4845629287892476e-02 0.0000000000000000e+00  8.1647298000888588e-03 1.7485018399584729e-01 0.0000000000000000e+00  -1.3851661291038211e-03 3.7900114076982988e-02 0.0000000000000000e+00  4.0219123645721831e-03 1.5938250298375731e-01 0.0000000000000000e+00  -7.7781711529925288e-03 -1.0425892612028756e-01 0.0000000000000000e+00  -1.8860652497871527e-03 -8.1560374591119658e-02 0.0000000000000000e+00  2.7997925414261259e-03 -1.9479387398907491e-01 0.0000000000000000e+00  4.9069851787801220e-04 1.6955982588062184e-05 0.0000000000000000e+00  1.4471655401227317e-02 2.1159560028204127e-01 0.0000000000000000e+00  -1.0208212890565494e-02 2.2238180637520277e-01 0.0000000000000000e+00  -2.5041338231389073e-03 1.8644444033083021e-01 0.0000000000000000e+00  2.6249774677903921e-03 -5.6426658330029342e-02 0.0000000000000000e+00  1.3693851149015146e-05 1.3260231047236720e-03 0.0000000000000000e+00  2.0782146662812865e-02 1.8178743244109372e-01 0.0000000000000000e+00  -3.2196574428675740e-04