<?xml version="1.0"?>
<VTKFile type="UnstructuredGrid"  version="0.1"  >
<UnstructuredGrid>
<Piece  NumberOfPoints="4978" NumberOfCells="9630">
<Points>
<DataArray  type="Float64"  NumberOfComponents="3"  format="ascii">0 1.5 0  0 0 0  0.06190941752361886 0 0  0.06190941752361886 0.02304324263930277 0  0.07687367483109155 0.06663263502519032 0  0.1051805799723963 0.1030013474942385 0  0.1437626405485843 0.128208265731708 0  0.1884388916338735 0.1395218290209338 0  0.2343679681997119 0.1357160372315063 0  0.2765727421371398 0.117203306956754 0  0.3104796713154951 0.0859897797765535 0  0.3324144138380889 0.04545792568865569 0  0.34 0 0  0.4722134970410927 0 0  0.4722134970410927 0.02388743731615415 0  0.4894717723551502 0.0684361811740563 0  0.5216574972706967 0.1037422395464312 0  0.5644238112906292 0.1250373336124665 0  0.6119948867302293 0.1294454429183545 0  0.6579459862509499 0.1163712278761581 0  0.6960711592386857 0.08758043367405244 0  0.7212213898225662 0.04696141660432988 0  0.73 0 0  0.85 0 0  0.857341522555727 0.04635254915624212 0  0.8786474508437579 0.08816778784387098 0  0.9118322121561291 0.1213525491562421 0  0.9536474508437579 0.142658477444273 0  1 0.15 0  1.046352549156242 0.142658477444273 0  1.088167787843871 0.1213525491562421 0  1.121352549156242 0.08816778784387097 0  1.142658477444273 0.04635254915624211 0  1.15 0 0  1.461909417523619 0 0  1.461909417523619 0.02304324263930277 0  1.476873674831092 0.06663263502519032 0  1.505180579972396 0.1030013474942385 0  1.543762640548584 0.128208265731708 0  1.588438891633874 0.1395218290209338 0  1.634367968199712 0.1357160372315063 0  1.67657274213714 0.117203306956754 0  1.710479671315495 0.0859897797765535 0  1.732414413838089 0.04545792568865569 0  1.74 0 0  1.78 0 0  1.789134456098646 0.04592201188381079 0  1.815147186257614 0.08485281374238571 0  1.854077988116189 0.1108655439013544 0  1.9 0.12 0  1.945922011883811 0.1108655439013544 0  1.984852813742386 0.08485281374238569 0  2.010865543901355 0.04592201188381077 0  2.02 0 0  2.161909417523619 0 0  2.161909417523619 0.02304324263930277 0  2.176873674831092 0.06663263502519032 0  2.205180579972396 0.1030013474942385 0  2.243762640548584 0.128208265731708 0  2.288438891633873 0.1395218290209338 0  2.334367968199712 0.1357160372315063 0  2.37657274213714 0.117203306956754 0  2.410479671315495 0.0859897797765535 0  2.432414413838089 0.04545792568865569 0  2.44 0 0  2.472213497041093 0 0  2.472213497041093 0.02388743731615415 0  2.48947177235515 0.0684361811740563 0  2.521657497270697 0.1037422395464312 0  2.564423811290629 0.1250373336124665 0  2.611994886730229 0.1294454429183545 0  2.65794598625095 0.1163712278761581 0  2.696071159238686 0.08758043367405244 0  2.721221389822567 0.04696141660432988 0  2.73 0 0  3 0 0  3 1.5 0  0 0.75 0  3 0.75 0  1.5 1.5 0  0 0.375 0  0 0.1875 0  0 0.09375 0  0.75 1.5 0  2.25 1.5 0  1.137279452465634 0.8667483509386543 0  2.055384907633385 0.8149748422668953 0  0.5545701656450307 0.9454298343549693 0  2.545804583542266 1.045804583542266 0  2.462951104370831 0.5854482317237805 0  1.6063536999151 1.018574336065804 0  0.7683179692414909 0.5511078775270282 0  1.647896012796697 0.5780189144999826 0  1.875 1.5 0  0.3683226130580748 0.5893782185394094 0  0.375 1.5 0  0 1.125 0  3 0.375 0  1.125 1.5 0  3 1.125 0  2.625 1.5 0  1.247216233241016 0.4851891764902285 0  0.8779404074027722 1.143194262378568 0  1.992337703792022 0.4642129848858538 0  2.200035536160075 1.144037289792772 0  1.3125 1.206118267007311 0  1.882280687299076 1.18026905614258 0  0.8375010042452264 0.8437030129736524 0  0.2703628106324028 0.8673582108832857 0  0.336944444033578 1.181320038574892 0  1.424720841531434 0.7792108746582741 0  2.763716218670896 0.5625 0  0.6112325230261646 1.216037756380734 0  2.429292395855053 1.293345775631689 0  2.798691155259055 0.9375 0  2.340750225085827 0.8450755885956063 0  2.74506315455788 1.24506315455788 0  0.4115012634770826 0.3359864655288552 0  1.6875 1.5 0  1.553212834656815 1.259295117559057 0  1.783849920010049 0.8130750647527071 0  2.590242300399914 0.800172794523538 0  2.206538789959823 0.6067588023913982 0  1.022769083327432 0.627137676743421 0  2.0625 1.5 0  2.566013274303806 0.3667751817948443 0  2.317230353528816 0.3853650267397287 0  0.9546600707351991 0.3912757388497677 0  1.76490060939521 0.3540000691256479 0  1.398169292756645 0.3089248951275104 0  0.1875 1.5 0  0.6961815191548208 0.3380429757712475 0  0.6390751493076395 0.7361434669345621 0  1.385952842918209 0.9972233609662619 0  1.082019261833385 1.265823315390121 0  2.784258672215756 0.3048233224522298 0  0 0.5625 0  0.2130557952202133 0.4325455696870932 0  2.110276358430479 0.2903936515686117 0  0 1.3125 0  0.5618175915722093 0.5022778936897083 0  1.438605690073396 0.5702366817214194 0  1.851778102902867 0.6169409446553686 0  0.9375 1.5 0  1.918499765346388 0.9737703250858507 0  1.066617221574711 1.060327143126178 0  0.17830064634795 0.65625 0  1.139464543633635 0.3182162642668528 0  1.214887260891528 0.6824917486258804 0  0.4470960700565646 0.7803305254813445 0  2.056073894593081 1.292965518236122 0  0.7800417460951754 1.309431349558015 0  0.7102942521579887 1.054059105222724 0  2.772203778896419 0.7508393899039921 0  3 0.9375 0  2.4375 1.5 0  0.5625 1.5 0  3 0.5625 0  1.3125 1.5 0  0 0.9375 0  3 1.3125 0  2.8125 1.5 0  3 0.1875 0  1.74009613212014 1.312845810865967 0  0.1858279553328271 1.04932632064409 0  1.582414108002925 0.3243096672004901 0  0.4576542986122824 1.328517530191622 0  1.30595470876181 0 0  0.1616828829631953 1.229471150973137 0  1.600689448835705 0.8342777580615786 0  2.184954406689295 0.9543424310663166 0  2.356848459734244 1.033731425282726 0  2.249618867339344 1.318565528322325 0  2.031012140730151 0.6383085966483963 0  1.264473591492607 0.1926369230867345 0  1.93294708275428 0.2969945700235964 0  1.406271966518558 1.353045118606616 0  0.2855042944080262 1.351202341158466 0  2.163692386827529 0.4469681835123645 0  2.058709899218631 1.05982604745508 0  1.21875 1.361760465218127 0  1.232585115983139 1.060656719142284 0  1.682328919476849 1.161572426192166 0  0.4864612871934715 1.100927295036068 0  2.842393003195402 0.1547034389615206 0  1.901710724058898 1.340659870484523 0  2.578488906869203 1.212378831230944 0  0.346730023619794 1.013455011579226 0  1.758789788261688 0.970834021568154 0  0.9209577900333827 0.984909924281538 0  2.461973640748163 0.2490632223012221 0  2.833434714842781 1.102015011431888 0  1.485476187845101 1.118115752354218 0  0.7869575052851041 0.2127716822913992 0  1.091585464669657 0.4673676525872368 0  0.9308375558444295 1.286291202675726 0  2.609275627299536 0.5207885309723005 0  2.859418780372727 0.4404724026784034 0  0.1368795735450182 0.2913992261536034 0  0.5088670694303536 0.6431238265444117 0  0.9924988599062848 0.7887715626383616 0  0.8674753477047706 0.6821390867986818 0  0.6993572585883594 0.9038049302516018 0  1.53924450853783 0.6818717864694561 0  1.27954362181495 0.818196911265721 0  2.885754890315292 0.65625 0  0.1199579452929171 0.84375 0  0.3101130847613819 0.7251157056441525 0  2.683488575489726 1.10528265125029 0  2.637912450120847 1.350340704724588 0  0.65625 1.387568746661148 0  2.204969505432462 0.7645924845263576 0  2.34230217156612 0.6870332922078795 0  2.458336421316689 0.930056573232228 0  1.547170662421109 0.4687109428674099 0  0.55426355401875 0.2785752421136156 0  1.927690911684502 0.7425770788416013 0  2.650983472818039 0.6639703826486528 0  0.2807744135836687 0.2731407085328489 0  2.697063502273202 0.4130460425434029 0  1.768721210125562 0.4985606178023466 0  1.59375 1.394491048145999 0  1.03125 1.39617417476255 0  2.649124789533757 0.9376608889715211 0  2.899345577629528 0.84375 0  2.448792339301353 1.151333513094988 0  2.455516477512143 0.7671738041202795 0  0.1479512725554237 1.367277900867101 0  1.733007556765436 0.6856365299097277 0  2.865 0 0  0.407900401917371 0.1920322062602331 0  1.482893533441057 0.9020086108979886 0  2.902194538181383 1.21875 0  2.860324471164851 1.360324471164851 0  0.9128790560808855 0.5311054613533476 0  0.7396036279203969 1.183264973390871 0  1.379392725427689 0.4456149894503371 0  0.8305263666170877 0.339868595109382 0  2.352639297837627 1.399880277695907 0  2.15625 1.5 0  2.32277762299786 1.203473773731512 0  1.818471673600783 0.235727380341035 0  1.269129800285538 0.3222823294390822 0  2.329228807632851 0.5297324129610972 0  0.430777275012463 0.469645907614299 0  1.390502090335328 0.1630587681988043 0  1.149408636841162 1.157447166816889 0  1.687853147042319 0.2519031106491252 0  0.3941048876243997 0.8956837842542459 0  1.877835046604575 0.410724628626283 0  1.348230251479045 0.6691802479050837 0  2.336954765206726 0.2613063289913201 0  2.514033953321691 1.393470229958569 0  0 0.46875 0  0.1287800079303892 0.5340043503292357 0  2.441328451749267 0.3721441168812449 0  0.9333932382689634 0.2670516659043625 0  1.13959172768211 0.5827503401695603 0  0.8703665929291606 1.395134656069543 0  1.240468926246127 0.9364063612525604 0  1.433475419570003 1.229904687600933 0  1.020534477629395 0.9101139083191684 0  1.108777781305164 0.7462713331880694 0  0.6468125623079457 0.6038935958199032 0  1.665312060212151 0.428962863572448 0  0.2512528931669099 0.5500044694745148 0  2.66971919386773 0.2450375495263612 0  2.901855502368762 0.2640467328343441 0  2.063534245742155 0.9373123558679215 0  2.031795413587333 0.1972457754676831 0  1.836924180675512 1.065887991891963 0  1.001601941364679 1.16852535211421 0  0.8051266927803291 0.9581030042697194 0  0.7620228346493961 0.7461373576581022 0  3 1.03125 0  2.084817260746984 1.176705869274554 0  2.085981885570153 0.5347538843754811 0  1.496744890324478 0.239335226969819 0  1.894594308711337 0.8570406362709689 0  1.78125 1.5 0  2.109375 1.394928085212741 0  2.71875 1.5 0  0.4943575340553394 1.217544978302146 0  0.5937185858435849 1.055241883498284 0  2.227680725187669 0.3075299344665331 0  0.5158109084499103 0.3891628929402524 0  1.96875 1.5 0  0.6036564600183
[...]
<PointData  Vectors="f_60"> 
<DataArray  type="Float64"  Name="f_60"  NumberOfComponents="3" format="ascii">-1.3200470319058979e-04 -1.3580770537588246e-04 0.0000000000000000e+00  6.3617105798551747e-05 2.0178340777703886e-05 0.0000000000000000e+00  3.3908569057941917e-05 2.4154047418368029e-05 0.0000000000000000e+00  8.1986098695068052e-05 5.1059965720688754e-05 0.0000000000000000e+00  6.2434075779064114e-04 6.2895467414277842e-04 0.0000000000000000e+00  5.7454637539157047e-04 7.6627569267088318e-04 0.0000000000000000e+00  -8.3341336466974652e-04 1.0104345295776380e-03 0.0000000000000000e+00  -1.0318069690911708e-04 1.1274396120528143e-03 0.0000000000000000e+00  -5.9058471678183474e-04 6.7419919895593745e-04 0.0000000000000000e+00  6.0760020976436801e-04 -1.1163415599642996e-04 0.0000000000000000e+00  2.7844675406570838e-04 1.2352613822708184e-03 0.0000000000000000e+00  -2.9579320651350793e-04 1.8649258606832117e-03 0.0000000000000000e+00  3.1348048594457358e-04 2.0114462246752059e-04 0.0000000000000000e+00  1.7955482512292610e-04 1.9287249791960289e-04 0.0000000000000000e+00  2.5859504378112057e-04 2.4918094976001390e-04 0.0000000000000000e+00  -3.6586708093276865e-04 6.0157409359480433e-04 0.0000000000000000e+00  3.5492994428537459e-04 9.1528835000620771e-04 0.0000000000000000e+00  -7.5109836556336602e-05 9.7261287506668120e-04 0.0000000000000000e+00  -1.0835169630884527e-04 5.9386311120041566e-04 0.0000000000000000e+00  -3.2064444687581909e-04 7.6647787111745215e-04 0.0000000000000000e+00  -4.0498841590281935e-04 1.1427898881075321e-03 0.0000000000000000e+00  -2.3451809505807317e-04 4.5112227535899730e-04 0.0000000000000000e+00  -1.8147232179271342e-04 1.4169681557807366e-04 0.0000000000000000e+00  -3.6719957041404599e-04 4.7667064480448471e-04 0.0000000000000000e+00  1.9052428596083186e-04 1.0863414051084735e-03 0.0000000000000000e+00  4.3405471085218220e-04 1.2224829438538436e-03 0.0000000000000000e+00  -7.8309244031810586e-04 2.0748744581051178e-04 0.0000000000000000e+00  1.0551925275691820e-04 5.7737036536180712e-04 0.0000000000000000e+00  -1.7295899666490102e-04 1.0784605962629486e-03 0.0000000000000000e+00  1.1634467576806550e-04 8.9412420452233358e-04 0.0000000000000000e+00  1.9695895956632186e-04 1.0526231095099182e-03 0.0000000000000000e+00  -5.7357294178789632e-04 1.1268874123109849e-03 0.0000000000000000e+00  3.9307407250638872e-06 1.1523904088725773e-04 0.0000000000000000e+00  9.3578918293075902e-05 2.0722507256582308e-05 0.0000000000000000e+00  -3.5968142800056965e-04 2.0791001206483400e-04 0.0000000000000000e+00  -1.0850988556703309e-04 8.1727517634434550e-04 0.0000000000000000e+00  2.9141812481016567e-04 1.6667461055290399e-03 0.0000000000000000e+00  -4.9292526292099646e-04 4.8886435525186340e-04 0.0000000000000000e+00  3.1190138030465378e-05 4.1688447460857630e-04 0.0000000000000000e+00  -5.0139292694939292e-05 7.4754209949479057e-04 0.0000000000000000e+00  5.9716885954247552e-04 6.9094451008626400e-04 0.0000000000000000e+00  8.6597951877197363e-04 4.2805799021366321e-04 0.0000000000000000e+00  -6.3517345456703218e-04 9.5871778028548498e-04 0.0000000000000000e+00  -2.1976435995859408e-04 1.3843660073511999e-04 0.0000000000000000e+00  -9.9520921012087596e-05 -2.5498913193261188e-05 0.0000000000000000e+00  -1.6608932204066577e-04 1.6387725370679660e-05 0.0000000000000000e+00  -2.0204458499087445e-04 2.8600202519260645e-04 0.0000000000000000e+00  -2.1636362878598843e-04 6.2770560743905879e-04 0.0000000000000000e+00  2.7810655665190613e-04 1.0756202721184567e-03 0.0000000000000000e+00  1.6235616024293194e-04 9.7373282290825168e-04 0.0000000000000000e+00  8.6959495844708809e-04 4.4222950767484664e-04 0.0000000000000000e+00  3.6613936242531353e-04 5.2587426189439296e-04 0.0000000000000000e+00  -5.9492694005122086e-04 6.7437388028887698e-04 0.0000000000000000e+00  -3.0590427470826624e-04 2.0494713565631255e-04 0.0000000000000000e+00  3.5485607801303628e-05 1.7394722786013590e-05 0.0000000000000000e+00  3.0191561517716012e-04 2.2844993130106047e-04 0.0000000000000000e+00  5.2979168284791639e-04 7.6269557981378051e-04 0.0000000000000000e+00  3.2379189273553857e-04 9.4639483927154162e-04 0.0000000000000000e+00  -1.3879357279480192e-04 6.4660054291477270e-04 0.0000000000000000e+00  -1.3881183346507235e-04 7.3674757954083833e-04 0.0000000000000000e+00  -1.4297503147604989e-04 2.3346325791725672e-04 0.0000000000000000e+00  4.2609552982278090e-04 4.7623458862496606e-04 0.0000000000000000e+00  5.8517068112622116e-04 3.7044808519383506e-04 0.0000000000000000e+00  6.9268866672846509e-04 -2.5836555152520196e-04 0.0000000000000000e+00  5.6791454652391919e-05 -5.8103743943925265e-05 0.0000000000000000e+00  -1.2538336855682619e-04 -2.9774957302861764e-05 0.0000000000000000e+00  4.7643343315047165e-05 -1.0405343879515532e-04 0.0000000000000000e+00  3.2928989525764826e-04 2.7761639556758927e-04 0.0000000000000000e+00  9.8945242360980613e-04 1.1297977851267515e-03 0.0000000000000000e+00  1.6240228728074874e-03 5.0780826828986830e-04 0.0000000000000000e+00  6.5403296753170029e-04 3.3299307944880145e-04 0.0000000000000000e+00  -4.3833139835290310e-04 9.6639314650606993e-04 0.0000000000000000e+00  -9.2607683777459261e-04 2.6614003429559734e-04 0.0000000000000000e+00  1.1523015830620033e-03 -1.8518329415208663e-03 0.0000000000000000e+00  9.5547832601232451e-05 -1.2515892249569801e-03 0.0000000000000000e+00  -4.3093027422143456e-03 1.8839444268066465e-03 0.0000000000000000e+00  -3.8650051400263930e-04 1.9366673469805855e-03 0.0000000000000000e+00  -8.4011394959253256e-06 1.0684709785833864e-05 0.0000000000000000e+00  -5.2955375930997404e-04 -1.1140914811248833e-04 0.0000000000000000e+00  8.8083163678903110e-06 -8.6799413167885659e-04 0.0000000000000000e+00  1.4490340786547436e-05 3.2309148255249615e-06 0.0000000000000000e+00  3.2208804283381006e-04 1.3602508096001299e-03 0.0000000000000000e+00  2.4337272673277511e-04 6.1931713154572069e-04 0.0000000000000000e+00  -2.4560910267755790e-04 -1.8275611390970739e-04 0.0000000000000000e+00  -8.0247261132544427e-05 -2.3084468932930773e-04 0.0000000000000000e+00  -1.6028157024197325e-03 6.1432395649093985e-01 0.0000000000000000e+00  6.4077552142956254e-02 1.6847099568089408e+00 0.0000000000000000e+00  -2.8133808391156662e-02 1.3157480608279735e+00 0.0000000000000000e+00  3.6118444487071022e-01 -1.2985779472585210e+00 0.0000000000000000e+00  -2.8977940755092235e-01 9.6593703338857895e-01 0.0000000000000000e+00  8.0865388150823208e-04 -1.3025522223065211e+00 0.0000000000000000e+00  6.9020470735613154e-02 -2.1892051699640369e+00 0.0000000000000000e+00  1.0563764902703098e-02 -2.1629665450842346e+00 0.0000000000000000e+00  -8.1489696092328396e-05 -9.5730296885822720e-04 0.0000000000000000e+00  8.1839313300536856e-02 4.0926060367743300e-01 0.0000000000000000e+00  -1.4854174730131217e-04 -9.1523619266714129e-04 0.0000000000000000e+00  3.5924045510570572e-06 -3.2281831721420602e-05 0.0000000000000000e+00  -6.9823731316239037e-03 -3.8751245427800899e-04 0.0000000000000000e+00  -1.0988769723130431e-04 -9.1986742808160195e-04 0.0000000000000000e+00  8.8397069041855792e-04 1.3393999622981657e-04 0.0000000000000000e+00  1.2863675240660044e-03 -5.6595833386442324e-05 0.0000000000000000e+00  6.0402585353760384e-02 1.4140135986749098e+00 0.0000000000000000e+00  -1.1664476358287258e-01 2.1206280334131269e+00 0.0000000000000000e+00  -1.1143237075362809e-01 -1.0579096517598807e+00 0.0000000000000000e+00  2.1431609507668070e-01 -5.1750319782535981e-01 0.0000000000000000e+00  -7.4648467357523007e-02 -1.6882278899037249e+00 0.0000000000000000e+00  4.8016200193261187e-02 -1.1985330274640640e-01 0.0000000000000000e+00  2.7874656547186992e-03 5.8420020178165244e-01 0.0000000000000000e+00  -2.1253397053926375e-03 1.7926557461041304e+00 0.0000000000000000e+00  -8.9956923051243171e-02 1.5184968690925518e+00 0.0000000000000000e+00  2.6585111628612469e-02 2.6705513825286534e-02 0.0000000000000000e+00  -5.4571387046723252e-01 1.2196009764754632e+00 0.0000000000000000e+00  -1.4082564427352864e-01 2.1695782576112288e+00 0.0000000000000000e+00  5.9899635574168175e-01 2.6310548287384510e+00 0.0000000000000000e+00  3.9172342418075862e-01 1.0710189509202781e+00 0.0000000000000000e+00  1.3513047134631073e-01 1.2767178936054369e+00 0.0000000000000000e+00  1.3519688209743257e+00 3.3224142683018743e+00 0.0000000000000000e+00  2.0156624705529205e-01 -1.4143038849069209e+00 0.0000000000000000e+00  2.4993937813272388e-04 -7.9900920151836064e-04 0.0000000000000000e+00  -7.2008374735616748e-02 9.7059102411122133e-01 0.0000000000000000e+00  2.8799679220740948e-02 2.3611807094620856e+00 0.0000000000000000e+00  1.2586185398010662e-02 -4.7264560080211665e-01 0.0000000000000000e+00  -1.4930389727759294e-01 -1.0400578217705945e+00 0.0000000000000000e+00  6.2139267956314456e-02 -1.8781268525213146e+00 0.0000000000000000e+00  -7.7499603211383646e-04 -7.6894510356831044e-04 0.0000000000000000e+00  -7.8306744208227552e-01 -6.0455103064356364e-01 0.0000000000000000e+00  -3.3864407556530912e-01 5.8005511002852783e-01 0.0000000000000000e+00  7.3689331198281596e-02 1.0531303028007177e+00 0.0000000000000000e+00  -2.9825606151400754e-02 1.8271631807595268e+00 0.0000000000000000e+00  1.0331629727399697e-01 -1.3047259613988311e+00 0.0000000000000000e+00  1.7028385519693356e-04 -8.1886114713112536e-04 0.0000000000000000e+00  5.2704073422930015e-02 -9.6682082004402015e-01 0.0000000000000000e+00  2.8863531604291889e-02 1.5851749603013801e+00 0.0000000000000000e+00  -7.1403710826937368e-03 -1.5953349310842933e+00 0.0000000000000000e+00  -1.2384543707455418e-01 -1.6470223865422786e+00 0.0000000000000000e+00  -1.4465799160149238e+00 -4.5080176705570552e-01 0.0000000000000000e+00  6.4873586432009941e-06 2.5374315236770018e-06 0.0000000000000000e+00  1.1042774256999044e-01 -7.4383544423536097e-01 0.0000000000000000e+00  -2.2787299387599930e-01 2.3229093016547697e+00 0.0000000000000000e+00  9.1176537386048376e-05 -2.9970939579528782e-04 0.0000000000000000e+00  9.7836432907502144e-02 1.4238171141638643e+00 0.0000000000000000e+00  5.2661415811702007e-02 6.4290901202845063e-01 0.0000000000000000e+00  -1.7573208651820695e-02 1.2609422264986054e+00 0.0000000000000000e+00  4.0614961574912299e-04 -9.4812607351850702e-04 0.0000000000000000e+00  4.7629056355138408e-02 -1.5340504248160749e+00 0.0000000000000000e+00  -3.6562170449534685e-02 -2.1148452720933997e+00 0.0000000000000000e+00  5.0444227679923098e-02 -2.0274432093109800e+00 0.0000000000000000e+00  1.4670307337976166e-01 5.1974496932469927e-01 0.0000000000000000e+00  2.8137541055348120e-02 2.2594902302481343e+00 0.0000000000000000e+00  5.4771098717313914e-02 -2.3431005546424535e+00 0.0000000000000000e+00  9.4545561356253138e-02 1.3903100755068534e+00 0.0000000000000000e+00  -1.6725377988009496e-01 -1.6796700168852468e+00 0.0000000000000000e+00  -3.9436884550129697e-02 -1.6198691923565427e+00 0.0000000000000000e+00  -4.5700209897991208e-02 1.6001487878695613e+00 0.0000000000000000e+00  1.3561231918006469e-03 2.5031076942640476e-05 0.0000000000000000e+00  1.4667680307750466e-04 -9.6969849335472205e-04 0.0000000000000000e+00  -3.2716125284954612e-04 -6.4356789670962349e-04 0.0000000000000000e+00  -2.8292116566519363e-03 -3.7201860487049722e-04 0.0000000000000000e+00  -3.9148074427713123e-04 -5.2309996872412616e-04 0.0000000000000000e+00  1.2075203511124459e-05 -1.3327877138417740e-05 0.0000000000000000e+00  -2.4842848088078379e-04 -2.0046500289176345e-04 0.0000000000000000e+00  3.0203081044098781e-03 -6.3491872418063565e-04 0.0000000000000000e+00  -4.1260185336101166e-03 6.1789509825299833e-04 0.0000000000000000e+00  -1.0234496120736444e-01 8.3553774510357393e-01 0.0000000000000000e+00  -1.2756405763690564e-02 -1.7375133199668669e+00 0.0000000000000000e+00  -2.5748389905283404e-02 -3.1836631975408536e-01 0.0000000000000000e+00  -1.4936379197634719e-01 -2.2008575442217011e+00 0.0000000000000000e+00  -9.9895670210406072e-04 7.3674600603336341e-04 0.0000000000000000e+00  -3.4887159675608098e-02 -2.2384341523045981e+00 0.0000000000000000e+00  1.4296612257046058e-02 -1.0308289272341871e+00 0.0000000000000000e+00  1.1340262160501120e-01 1.6513598481968778e-01 0.0000000000000000e+00  3.3229025078989682e-01 1.6871673884259453e+00 0.0000000000000000e+00  3.0990151221291395e-01 -2.0775446244437217e+00 0.0000000000000000e+00  -2.5914199595519792e-02 6.7706318967794143e-01 0.0000000000000000e+00  1.9282582325176995e-01 6.6680268849675872e-01 0.0000000000000000e+00  -1.6378296337457460e-01 -1.9909894731861915e+00 0.0000000000000000e+00  -2.8702404158505940e-01 -5.7930312925407823e-01 0.0000000000000000e+00  -1.9654132989451753e-01 2.0578342609508629e+00 0.0000000000000000e+00  -2.0330688864118307e-01 6.0766254929902064e-01 0.0000000000000000e+00  1.3840744136918073e-01 1.6648661555890720e+00 0.0000000000000000e+00  -8.1693133954842401e-02 1.8695092206053836e+00 0.0000000000000000e+00  -6.6828607769691975e-02 1.7786722546190257e+00 0.0000000000000000e+00  -1.3610926813820464e-03 -1.6897898390773620e+00 0.0000000000000000e+00  -4.7814866287614062e-02 -1.6240671544643965e+00 0.0000000000000000e+00  -1.7615573702689213e+00 5.1975977356348657e-01 0.0000000000000000e+00  1.1005983368677164e-01 -1.0398459488329943e+00 0.0000000000000000e+00  6.6595795320464757e-01 -1.6533600872557734e+00 0.0000000000000000e+00  -3.4905036747343202e-02 1.1950624923469788e+00 0.0000000000000000e+00  2.8790771373347793e-02 1.6493707252937788e+00 0.0000000000000000e+00  -5.5666268190805779e-02 2.0685851007842500e+00 0.0000000000000000e+00  -8.5447380505216464e-01 -1.1136528964401415e-01 0.0000000000000000e+00  7.9425369816100311e-01 1.7148876847184127e-01 0.0000000000000000e+00  -5.9858438180212706e-02 2.2994340144966783e+00 0.0000000000000000e+00  1.5574295616877271e-01 -1.5958166505851767e+00 0.0000000000000000e+00  8.0347410561661461e-02 -1.5540339940615444e+00 0.0000000000000000e+00  -1.4946613823281341e-01 1.6788999272165928e+00 0.0000000000000000e+00  -4.3902438993470339e-01 1.0823535293887452e+00 0.0000000000000000e+00  -1.0325993220703586e+00 3.5530321716703311e-01 0.0000000000000000e+00  1.1565085319427791e-01 -2.0326961811361270e+00 0.0000000000000000e+00  7.8279990896805360e-02 -9.0866774262186711e-01 0.0000000000000000e+00  2.7106399835653966e-02 -7.7497877236189949e-01 0.0000000000000000e+00  3.4775520776735250e-02 1.7478154736497038e+00 0.0000000000000000e+00  3.4039778444492999e-03 -1.1504330851629332e+00 0.0000000000000000e+00  2.1872508119791051e-02 1.6984072135181774e+00 0.0000000000000000e+00  1.5088939333686133e-02 -1.3547823157403141e-01 0.0000000000000000e+00  -3.5492859239679864e-01 6.6937392785423178e-01 0.0000000000000000e+00  1.8140951291781154e-02 -1.9590320068710434e+00 0.0000000000000000e+00  2.8148538755461690e-02 2.2117101317267509e+00 0.0000000000000000e+00  8.6833606053140111e-01 2.7470056889582901e+00 0.0000000000000000e+00  9.3522616863189978e-01 -3.5128233703259892e-01 0.0000000000000000e+00  7.0096785888799903e-02 6.0432420612968885e-01 0.0000000000000000e+00  -2.5919621104275731e-02 -8.3497862414736923e-01 0.0000000000000000e+00  -2.6528539040763747e-02 1.5817574897303122e+00 0.0000000000000000e+00  2.6235981639959283e-01 1.9182006752345646e+00 0.0000000000000000e+00  3.4049696795319523e-02 1.3618121108634844e+00 0.0000000000000000e+00  2.1426608152496149e-01 9.0970543827652606e-01 0.0000000000000000e+00  -1.3224160443675201e-02 -1.7702910109420835e+00 0.0000000000000000e+00  -8.8042728661407249e-02 2.6968148298027024e+00 0.0000000000000000e+00  2.6648484642490777e-01 1.9973070521132752e+00 0.0000000000000000e+00  -6.9396339113789307e-01 3.0059054578672590e+00 0.0000000000000000e+00  -1.0563851518231998e-02 1.9809762577960952e+00 0.0000000000000000e+00  2.0681084799019356e-01 -7.6682041541521240e-01 0.0000000000000000e+00  -1.2810059131637386e-01 -2.0348281808883595e+00 0.0000000000000000e+00  4.1589302068708844e-01 1.8556598862267699e+00 0.0000000000000000e+00  1.3303069429378955e-01 5.5189479920218643e-01 0.0000000000000000e+00  5.1906860572285496e-01 2.4005576913968607e+00 0.0000000000000000e+00  3.1330632805129391e-02 1.7538497877217545e+00 0.0000000000000000e+00  -9.7742222356899527e-02 -2.2192963090149789e+00 0.0000000000000000e+00  1.7484707404306209e-02 5.3538312401953148e-01 0.0000000000000000e+00  -5.5605330896891234e-04 -2.5335923500208804e-05 0.0000000000000000e+00  2.8254374184455092e-02 -1.1756642393785113e+00 0.0000000000000000e+00  -5.6733483052858365e-03 2.2513927172027723e+00 0.0000000000000000e+00  1.1941253478460339e+00 -6.6158491300731415e-01 0.0000000000000000e+00  1.9757509634672208e+00 -2.9768694413704461e-01 0.0000000000000000e+00  6.3370152597449755e-02 2.2486526197016699e+00 0.0000000000000000e+00  -7.9327149711444181e-02 -2.2797759049921469e+00 0.0000000000000000e+00  8.6755815208588924e-02 -1.8778682131019815e+00 0.0000000000000000e+00  5.6976142069342907e-02 1.7751246344590904e-01 0.0000000000000000e+00  2.3590635376615928e-02 8.0362693560629939e-01 0.0000000000000000e+00  6.7057304384335944e-04 -9.3946175629881518e-04 0.0000000000000000e+00  3.7802443603370639e-01 -2.7665920288927870e-01 0.0000000000000000e+00  -1.5473838101702289e-01 2.0203991711929579e+00 0.0000000000000000e+00  1.0937074098931740e-01 5.2121939110012061e-01 0.0000000000000000e+00  -2.0334395271875902e-01 1.1155911951260158e+00 0.0000000000000000e+00  1.4996688895838056e-01 -2.0774715502237453e+00 0.0000000000000000e+00  2.4915244584419077e-01 -1.5806848879317319e+00 0.0000000000000000e+00  -1.0165898900287325e-01 1.2639664779604194e+00 0.0000000000000000e+00  1.1208631488758718e-01 -1.4242284129734739e+00 0.0000000000000000e+00  1.4821786888936239e-02 -9.3976543142379554e-01 0.0000000000000000e+00  -8.7872881457173868e-02 -7.6279168009679224e-02 0.0000000000000000e+00  5.3206514393652780e-02 -2.2281385304345513e+00 0.0000000000000000e+00  -3.3939420637698664e-01 1.3343117230535071e+00 0.0000000000000000e+00  1.1723743797117401e+00 -3.6091980322312855e-01 0.0000000000000000e+00  -1.2102553089680613e-05 -1.3270290950765123e-05 0.0000000000000000e+00  6.5878473123298600e-02 -2.1059858248056171e+00 0.0000000000000000e+00  -5.6502975638899022e-01 1.2795925811528608e+00 0.0000000000000000e+00  -4.9970523368916511e-02 1.7816713332351957e+00 0.0000000000000000e+00  5.5058769181913006e-02 6.3451155586389851e-01 0.0000000000000000e+00  -3.6816461290483060e-01 1.6715476308095212e+00 0.0000000000000000e+00  -2.5675956704449766e-02 1.5623365924337591e+00 0.0000000000000000e+00  -1.0098123921594833e-01 5.8047489226887405e-01 0.0000000000000000e+00  4.6337216665592682e-03 -1.8690675606597129e+00 0.0000000000000000e+00  3.5539508018975791e-02 -7.8236079804846392e-01 0.0000000000000000e+00  5.8388511401662492e-02 1.3184904781887010e+00 0.0000000000000000e+00  -5.2021796094187545e-03 -2.0740415504490204e+00 0.0000000000000000e+00  6.7603814740089918e-02 1.0644149674085461e+00 0.0000000000000000e+00  -1.2113987758840172e+00 2.6539321545535013e+00 0.0000000000000000e+00  -2.0200913906198896e+00 2.5501989769159623e+00 0.0000000000000000e+00  1.1278615564671916e-01 1.9320316880598225e+00 0.0000000000000000e+00  5.8258987264667619e-02 5.4102680132398129e-01 0.0000000000000000e+00  3.4596497949251855e-02 1.8854257623729445e+00 0.0000000000000000e+00  -8.5115513707497287e-02 -1.3299320935876915e+00 0.0000000000000000e+00  -2.0070048504368554e-02 -8.9429672280320993e-01 0.0000000000000000e+00  4.6400792534473552e-02 -2.2560181766494911e+00 0.0000000000000000e+00  1.2376945909449997e-03 9.5602449931968565e-05 0.0000000000000000e+00  1.6461269583819177e-01 2.3916237686828392e+00 0.0000000000000000e+00  -7.4522800033253317e-02 2.5637288010851709e+00 0.0000000000000000e+00  -1.1487794245158975e-01 2.2124630076479570e+00 0.0000000000000000e+00  2.1444966576486146e-02 -6.2390675560250630e-01 0.0000000000000000e+00  -1.2170370936470011e-04 -7.7703876365508705e-04 0.0000000000000000e+00  1.7353931410575690e-01 2.0106157147961632e+00 0.00000000