<?xml version="1.0"?>
<VTKFile type="UnstructuredGrid"  version="0.1"  >
<UnstructuredGrid>
<Piece  NumberOfPoints="4978" NumberOfCells="9630">
<Points>
<DataArray  type="Float64"  NumberOfComponents="3"  format="ascii">0 1.5 0  0 0 0  0.06190941752361886 0 0  0.06190941752361886 0.02304324263930277 0  0.07687367483109155 0.06663263502519032 0  0.1051805799723963 0.1030013474942385 0  0.1437626405485843 0.128208265731708 0  0.1884388916338735 0.1395218290209338 0  0.2343679681997119 0.1357160372315063 0  0.2765727421371398 0.117203306956754 0  0.3104796713154951 0.0859897797765535 0  0.3324144138380889 0.04545792568865569 0  0.34 0 0  0.4722134970410927 0 0  0.4722134970410927 0.02388743731615415 0  0.4894717723551502 0.0684361811740563 0  0.5216574972706967 0.1037422395464312 0  0.5644238112906292 0.1250373336124665 0  0.6119948867302293 0.1294454429183545 0  0.6579459862509499 0.1163712278761581 0  0.6960711592386857 0.08758043367405244 0  0.7212213898225662 0.04696141660432988 0  0.73 0 0  0.85 0 0  0.857341522555727 0.04635254915624212 0  0.8786474508437579 0.08816778784387098 0  0.9118322121561291 0.1213525491562421 0  0.9536474508437579 0.142658477444273 0  1 0.15 0  1.046352549156242 0.142658477444273 0  1.088167787843871 0.1213525491562421 0  1.121352549156242 0.08816778784387097 0  1.142658477444273 0.04635254915624211 0  1.15 0 0  1.461909417523619 0 0  1.461909417523619 0.02304324263930277 0  1.476873674831092 0.06663263502519032 0  1.505180579972396 0.1030013474942385 0  1.543762640548584 0.128208265731708 0  1.588438891633874 0.1395218290209338 0  1.634367968199712 0.1357160372315063 0  1.67657274213714 0.117203306956754 0  1.710479671315495 0.0859897797765535 0  1.732414413838089 0.04545792568865569 0  1.74 0 0  1.78 0 0  1.789134456098646 0.04592201188381079 0  1.815147186257614 0.08485281374238571 0  1.854077988116189 0.1108655439013544 0  1.9 0.12 0  1.945922011883811 0.1108655439013544 0  1.984852813742386 0.08485281374238569 0  2.010865543901355 0.04592201188381077 0  2.02 0 0  2.161909417523619 0 0  2.161909417523619 0.02304324263930277 0  2.176873674831092 0.06663263502519032 0  2.205180579972396 0.1030013474942385 0  2.243762640548584 0.128208265731708 0  2.288438891633873 0.1395218290209338 0  2.334367968199712 0.1357160372315063 0  2.37657274213714 0.117203306956754 0  2.410479671315495 0.0859897797765535 0  2.432414413838089 0.04545792568865569 0  2.44 0 0  2.472213497041093 0 0  2.472213497041093 0.02388743731615415 0  2.48947177235515 0.0684361811740563 0  2.521657497270697 0.1037422395464312 0  2.564423811290629 0.1250373336124665 0  2.611994886730229 0.1294454429183545 0  2.65794598625095 0.1163712278761581 0  2.696071159238686 0.08758043367405244 0  2.721221389822567 0.04696141660432988 0  2.73 0 0  3 0 0  3 1.5 0  0 0.75 0  3 0.75 0  1.5 1.5 0  0 0.375 0  0 0.1875 0  0 0.09375 0  0.75 1.5 0  2.25 1.5 0  1.137279452465634 0.8667483509386543 0  2.055384907633385 0.8149748422668953 0  0.5545701656450307 0.9454298343549693 0  2.545804583542266 1.045804583542266 0  2.462951104370831 0.5854482317237805 0  1.6063536999151 1.018574336065804 0  0.7683179692414909 0.5511078775270282 0  1.647896012796697 0.5780189144999826 0  1.875 1.5 0  0.3683226130580748 0.5893782185394094 0  0.375 1.5 0  0 1.125 0  3 0.375 0  1.125 1.5 0  3 1.125 0  2.625 1.5 0  1.247216233241016 0.4851891764902285 0  0.8779404074027722 1.143194262378568 0  1.992337703792022 0.4642129848858538 0  2.200035536160075 1.144037289792772 0  1.3125 1.206118267007311 0  1.882280687299076 1.18026905614258 0  0.8375010042452264 0.8437030129736524 0  0.2703628106324028 0.8673582108832857 0  0.336944444033578 1.181320038574892 0  1.424720841531434 0.7792108746582741 0  2.763716218670896 0.5625 0  0.6112325230261646 1.216037756380734 0  2.429292395855053 1.293345775631689 0  2.798691155259055 0.9375 0  2.340750225085827 0.8450755885956063 0  2.74506315455788 1.24506315455788 0  0.4115012634770826 0.3359864655288552 0  1.6875 1.5 0  1.553212834656815 1.259295117559057 0  1.783849920010049 0.8130750647527071 0  2.590242300399914 0.800172794523538 0  2.206538789959823 0.6067588023913982 0  1.022769083327432 0.627137676743421 0  2.0625 1.5 0  2.566013274303806 0.3667751817948443 0  2.317230353528816 0.3853650267397287 0  0.9546600707351991 0.3912757388497677 0  1.76490060939521 0.3540000691256479 0  1.398169292756645 0.3089248951275104 0  0.1875 1.5 0  0.6961815191548208 0.3380429757712475 0  0.6390751493076395 0.7361434669345621 0  1.385952842918209 0.9972233609662619 0  1.082019261833385 1.265823315390121 0  2.784258672215756 0.3048233224522298 0  0 0.5625 0  0.2130557952202133 0.4325455696870932 0  2.110276358430479 0.2903936515686117 0  0 1.3125 0  0.5618175915722093 0.5022778936897083 0  1.438605690073396 0.5702366817214194 0  1.851778102902867 0.6169409446553686 0  0.9375 1.5 0  1.918499765346388 0.9737703250858507 0  1.066617221574711 1.060327143126178 0  0.17830064634795 0.65625 0  1.139464543633635 0.3182162642668528 0  1.214887260891528 0.6824917486258804 0  0.4470960700565646 0.7803305254813445 0  2.056073894593081 1.292965518236122 0  0.7800417460951754 1.309431349558015 0  0.7102942521579887 1.054059105222724 0  2.772203778896419 0.7508393899039921 0  3 0.9375 0  2.4375 1.5 0  0.5625 1.5 0  3 0.5625 0  1.3125 1.5 0  0 0.9375 0  3 1.3125 0  2.8125 1.5 0  3 0.1875 0  1.74009613212014 1.312845810865967 0  0.1858279553328271 1.04932632064409 0  1.582414108002925 0.3243096672004901 0  0.4576542986122824 1.328517530191622 0  1.30595470876181 0 0  0.1616828829631953 1.229471150973137 0  1.600689448835705 0.8342777580615786 0  2.184954406689295 0.9543424310663166 0  2.356848459734244 1.033731425282726 0  2.249618867339344 1.318565528322325 0  2.031012140730151 0.6383085966483963 0  1.264473591492607 0.1926369230867345 0  1.93294708275428 0.2969945700235964 0  1.406271966518558 1.353045118606616 0  0.2855042944080262 1.351202341158466 0  2.163692386827529 0.4469681835123645 0  2.058709899218631 1.05982604745508 0  1.21875 1.361760465218127 0  1.232585115983139 1.060656719142284 0  1.682328919476849 1.161572426192166 0  0.4864612871934715 1.100927295036068 0  2.842393003195402 0.1547034389615206 0  1.901710724058898 1.340659870484523 0  2.578488906869203 1.212378831230944 0  0.346730023619794 1.013455011579226 0  1.758789788261688 0.970834021568154 0  0.9209577900333827 0.984909924281538 0  2.461973640748163 0.2490632223012221 0  2.833434714842781 1.102015011431888 0  1.485476187845101 1.118115752354218 0  0.7869575052851041 0.2127716822913992 0  1.091585464669657 0.4673676525872368 0  0.9308375558444295 1.286291202675726 0  2.609275627299536 0.5207885309723005 0  2.859418780372727 0.4404724026784034 0  0.1368795735450182 0.2913992261536034 0  0.5088670694303536 0.6431238265444117 0  0.9924988599062848 0.7887715626383616 0  0.8674753477047706 0.6821390867986818 0  0.6993572585883594 0.9038049302516018 0  1.53924450853783 0.6818717864694561 0  1.27954362181495 0.818196911265721 0  2.885754890315292 0.65625 0  0.1199579452929171 0.84375 0  0.3101130847613819 0.7251157056441525 0  2.683488575489726 1.10528265125029 0  2.637912450120847 1.350340704724588 0  0.65625 1.387568746661148 0  2.204969505432462 0.7645924845263576 0  2.34230217156612 0.6870332922078795 0  2.458336421316689 0.930056573232228 0  1.547170662421109 0.4687109428674099 0  0.55426355401875 0.2785752421136156 0  1.927690911684502 0.7425770788416013 0  2.650983472818039 0.6639703826486528 0  0.2807744135836687 0.2731407085328489 0  2.697063502273202 0.4130460425434029 0  1.768721210125562 0.4985606178023466 0  1.59375 1.394491048145999 0  1.03125 1.39617417476255 0  2.649124789533757 0.9376608889715211 0  2.899345577629528 0.84375 0  2.448792339301353 1.151333513094988 0  2.455516477512143 0.7671738041202795 0  0.1479512725554237 1.367277900867101 0  1.733007556765436 0.6856365299097277 0  2.865 0 0  0.407900401917371 0.1920322062602331 0  1.482893533441057 0.9020086108979886 0  2.902194538181383 1.21875 0  2.860324471164851 1.360324471164851 0  0.9128790560808855 0.5311054613533476 0  0.7396036279203969 1.183264973390871 0  1.379392725427689 0.4456149894503371 0  0.8305263666170877 0.339868595109382 0  2.352639297837627 1.399880277695907 0  2.15625 1.5 0  2.32277762299786 1.203473773731512 0  1.818471673600783 0.235727380341035 0  1.269129800285538 0.3222823294390822 0  2.329228807632851 0.5297324129610972 0  0.430777275012463 0.469645907614299 0  1.390502090335328 0.1630587681988043 0  1.149408636841162 1.157447166816889 0  1.687853147042319 0.2519031106491252 0  0.3941048876243997 0.8956837842542459 0  1.877835046604575 0.410724628626283 0  1.348230251479045 0.6691802479050837 0  2.336954765206726 0.2613063289913201 0  2.514033953321691 1.393470229958569 0  0 0.46875 0  0.1287800079303892 0.5340043503292357 0  2.441328451749267 0.3721441168812449 0  0.9333932382689634 0.2670516659043625 0  1.13959172768211 0.5827503401695603 0  0.8703665929291606 1.395134656069543 0  1.240468926246127 0.9364063612525604 0  1.433475419570003 1.229904687600933 0  1.020534477629395 0.9101139083191684 0  1.108777781305164 0.7462713331880694 0  0.6468125623079457 0.6038935958199032 0  1.665312060212151 0.428962863572448 0  0.2512528931669099 0.5500044694745148 0  2.66971919386773 0.2450375495263612 0  2.901855502368762 0.2640467328343441 0  2.063534245742155 0.9373123558679215 0  2.031795413587333 0.1972457754676831 0  1.836924180675512 1.065887991891963 0  1.001601941364679 1.16852535211421 0  0.8051266927803291 0.9581030042697194 0  0.7620228346493961 0.7461373576581022 0  3 1.03125 0  2.084817260746984 1.176705869274554 0  2.085981885570153 0.5347538843754811 0  1.496744890324478 0.239335226969819 0  1.894594308711337 0.8570406362709689 0  1.78125 1.5 0  2.109375 1.394928085212741 0  2.71875 1.5 0  0.4943575340553394 1.217544978302146 0  0.5937185858435849 1.055241883498284 0  2.227680725187669 0.3075299344665331 0  0.5158109084499103 0.3891628929402524 0  1.96875 1.5 0  0.6036564600183
[...]
<PointData  Vectors="f_60"> 
<DataArray  type="Float64"  Name="f_60"  NumberOfComponents="3" format="ascii">-1.3129992953662012e-04 -2.5661297308736798e-04 0.0000000000000000e+00  6.6083216475495729e-05 5.7377515223974219e-05 0.0000000000000000e+00  5.2949769385628765e-05 6.2067794503419720e-05 0.0000000000000000e+00  1.0767897622066516e-04 1.1890512395932841e-04 0.0000000000000000e+00  6.1265062943817547e-04 6.6174193655252702e-04 0.0000000000000000e+00  4.5759275259013056e-04 6.2314536681577044e-04 0.0000000000000000e+00  -5.6679342932968249e-04 9.6174767618471498e-04 0.0000000000000000e+00  1.6280476884708987e-04 1.0029314360799275e-03 0.0000000000000000e+00  -6.7491487359566628e-04 6.5606756200711650e-04 0.0000000000000000e+00  5.7071315736158756e-04 -1.1825741560056001e-04 0.0000000000000000e+00  2.0031600312801651e-04 8.1078727139240973e-04 0.0000000000000000e+00  -2.4698846969995115e-04 1.7395190142627118e-03 0.0000000000000000e+00  4.2059717609626738e-04 3.0561736242512436e-04 0.0000000000000000e+00  1.7272872940696243e-04 2.7644440055066944e-04 0.0000000000000000e+00  1.8382790190184009e-04 3.3415786706902473e-04 0.0000000000000000e+00  -3.5623058596016843e-04 6.1510135944357869e-04 0.0000000000000000e+00  4.5411193512733677e-04 9.2244188538016044e-04 0.0000000000000000e+00  -2.1605270933626266e-04 6.5310531017437193e-04 0.0000000000000000e+00  -3.7756831321284336e-05 4.8576785922268260e-04 0.0000000000000000e+00  -3.3924188998332629e-04 6.5906418066708286e-04 0.0000000000000000e+00  -2.6089614288843718e-04 1.0212910979936808e-03 0.0000000000000000e+00  -1.6105289726585148e-04 4.7098208743607102e-04 0.0000000000000000e+00  -1.7808498334476698e-04 2.5624638272435672e-04 0.0000000000000000e+00  -3.9946892707487443e-04 8.3134958059863915e-04 0.0000000000000000e+00  1.6210831363054889e-04 1.3780807425092668e-03 0.0000000000000000e+00  2.8624470213626125e-04 5.3460661075370474e-04 0.0000000000000000e+00  -6.8028328455967558e-04 -7.2626849610626934e-05 0.0000000000000000e+00  1.1467485510226701e-04 7.3993579359873777e-04 0.0000000000000000e+00  -1.6976220584174659e-04 9.3701650860174995e-04 0.0000000000000000e+00  2.4789057803649558e-04 7.4349418329079989e-04 0.0000000000000000e+00  1.7572203455776925e-04 6.4541002877636553e-04 0.0000000000000000e+00  -5.6606481129147564e-04 9.4960281434477306e-04 0.0000000000000000e+00  -9.4650826834457127e-05 2.4308874443189005e-04 0.0000000000000000e+00  2.3047412027964659e-05 6.4858809502109043e-05 0.0000000000000000e+00  -4.7580359171592654e-04 3.2992686652501106e-04 0.0000000000000000e+00  -1.0176623188572078e-04 9.2361853982332088e-04 0.0000000000000000e+00  2.9630528986878822e-04 1.2551704083559642e-03 0.0000000000000000e+00  -4.5042572180969612e-04 1.9195584797586303e-04 0.0000000000000000e+00  1.0570530499336299e-04 4.7421932553177364e-04 0.0000000000000000e+00  -2.5429563662938729e-05 8.0828431898502821e-04 0.0000000000000000e+00  5.3768316600000688e-04 6.0825857512559545e-04 0.0000000000000000e+00  8.4825481511196902e-04 2.9782188017464371e-04 0.0000000000000000e+00  -6.3350905553708717e-04 7.9900033562733659e-04 0.0000000000000000e+00  -2.5987423001872732e-04 2.6860007640689158e-04 0.0000000000000000e+00  -1.3309396861679531e-04 8.9875386743474135e-05 0.0000000000000000e+00  -1.2487134808843484e-04 1.2465920062070354e-04 0.0000000000000000e+00  -8.5295060176995036e-05 4.2053449443706016e-04 0.0000000000000000e+00  -1.5895916133053698e-04 5.1127426320337027e-04 0.0000000000000000e+00  2.3945680167063618e-04 8.9497751039777768e-04 0.0000000000000000e+00  -6.4092768759872149e-05 8.9101159321276389e-04 0.0000000000000000e+00  8.5515890922940234e-04 3.5333118069980849e-04 0.0000000000000000e+00  4.8665679929043383e-04 3.1094694463858295e-04 0.0000000000000000e+00  -5.7587591500188069e-04 7.2787898054235028e-04 0.0000000000000000e+00  -2.7069948136908885e-04 3.5797582263513147e-04 0.0000000000000000e+00  1.9808497300805642e-05 8.1709057259545195e-05 0.0000000000000000e+00  3.5771352484422375e-04 3.0447708529720175e-04 0.0000000000000000e+00  5.9655109321185605e-04 7.3771863311762858e-04 0.0000000000000000e+00  3.4418253366767153e-04 7.6200334920241257e-04 0.0000000000000000e+00  -3.4751188234330855e-04 3.6065494859885416e-04 0.0000000000000000e+00  1.0958132289734716e-04 7.9300420216123083e-04 0.0000000000000000e+00  -1.5765390490937324e-04 3.7889228506111244e-04 0.0000000000000000e+00  1.9803016571433234e-04 1.8796070471327069e-04 0.0000000000000000e+00  -2.5617653739099512e-05 1.4256388138846506e-03 0.0000000000000000e+00  2.4784194501108111e-04 5.4510124986120647e-04 0.0000000000000000e+00  2.6171992466569600e-04 1.3134215740816233e-04 0.0000000000000000e+00  -7.7067093779171128e-05 3.9480793567545736e-05 0.0000000000000000e+00  1.5839314822734389e-04 6.7477641225381974e-05 0.0000000000000000e+00  9.8430061215120193e-04 1.1482720539722590e-03 0.0000000000000000e+00  6.4339323806209708e-04 9.6939478496577743e-04 0.0000000000000000e+00  1.1914092125612044e-03 5.0358834110067778e-04 0.0000000000000000e+00  6.8319959426732155e-04 -5.4875276736364009e-04 0.0000000000000000e+00  9.5473847779498457e-04 -9.7877475666217797e-04 0.0000000000000000e+00  -2.1125960809550109e-03 8.7537439456978293e-04 0.0000000000000000e+00  3.1427449045053004e-04 9.6380965022729186e-04 0.0000000000000000e+00  1.0550212155715174e-03 -2.8795289206088730e-04 0.0000000000000000e+00  -1.1417253104172837e-02 1.0835304905982993e-03 0.0000000000000000e+00  -1.9669746184679893e-03 2.3143981756611266e-04 0.0000000000000000e+00  -4.7993998975645798e-06 9.9092940776242884e-06 0.0000000000000000e+00  4.0107316723509920e-04 -7.8863258074044211e-05 0.0000000000000000e+00  -1.4040563775415363e-04 -8.8031620776623761e-04 0.0000000000000000e+00  2.2377678111221925e-05 3.2067658299501543e-05 0.0000000000000000e+00  2.2597170900004763e-04 9.0218782759938457e-04 0.0000000000000000e+00  1.6616541021058939e-04 7.0457961440107168e-04 0.0000000000000000e+00  -3.0886956769690210e-04 -2.5156017255954972e-04 0.0000000000000000e+00  2.1762294953006768e-05 -2.4006295435876748e-04 0.0000000000000000e+00  -2.0501615816640221e-04 4.5202314296841811e-01 0.0000000000000000e+00  3.7757039992808154e-02 1.2587155743155711e+00 0.0000000000000000e+00  -1.5817186623620801e-02 9.6401682316759540e-01 0.0000000000000000e+00  3.1192662547777145e-01 -1.0065996850551877e+00 0.0000000000000000e+00  -2.0147166683208279e-01 8.8403629484510993e-01 0.0000000000000000e+00  -1.0709224671035459e-03 -9.5495134543017290e-01 0.0000000000000000e+00  4.8345397407736100e-02 -1.6055842960572635e+00 0.0000000000000000e+00  6.3004174730322618e-03 -1.5991421913581938e+00 0.0000000000000000e+00  2.0835022623616549e-05 -8.5908190147181813e-04 0.0000000000000000e+00  6.0711523080708756e-02 2.5414949533993719e-01 0.0000000000000000e+00  1.0620519156734474e-04 -8.2652538834332727e-04 0.0000000000000000e+00  -4.3306058124957718e-06 -7.8991866835113773e-06 0.0000000000000000e+00  -4.3103453192308615e-03 -1.0925066745039120e-03 0.0000000000000000e+00  -1.3859870380346880e-04 -8.8490768469483966e-04 0.0000000000000000e+00  1.6898615027663832e-03 1.9184610737503161e-05 0.0000000000000000e+00  5.3568581480133756e-04 -4.4110479838601181e-04 0.0000000000000000e+00  5.2258229640566395e-02 1.0055782999651737e+00 0.0000000000000000e+00  -7.6095448018337203e-02 1.5430310619246768e+00 0.0000000000000000e+00  -8.2266947497747864e-02 -8.2750808012539401e-01 0.0000000000000000e+00  1.6656096152699335e-01 -4.7532848404122541e-01 0.0000000000000000e+00  -6.0113410645276387e-02 -1.2089706369653483e+00 0.0000000000000000e+00  3.7410121446018810e-02 -1.0873217842580531e-01 0.0000000000000000e+00  4.0428199013725873e-03 4.3253888778908550e-01 0.0000000000000000e+00  3.3962853214359393e-03 1.3226225988158449e+00 0.0000000000000000e+00  -5.9617603179681261e-02 1.1496765337361057e+00 0.0000000000000000e+00  1.7430245473370395e-02 3.1983540763156501e-02 0.0000000000000000e+00  -3.6280365488116817e-01 1.2315367550100984e+00 0.0000000000000000e+00  -9.2513687193517893e-02 1.6173776195327128e+00 0.0000000000000000e+00  4.3965820545739837e-01 1.8325775595102092e+00 0.0000000000000000e+00  3.1179703040526369e-01 6.3270598796682154e-01 0.0000000000000000e+00  8.8580132231776618e-02 9.9111259566658017e-01 0.0000000000000000e+00  9.3893136350785622e-01 2.2583611980525573e+00 0.0000000000000000e+00  1.3798468139669073e-01 -1.1261641620566429e+00 0.0000000000000000e+00  2.5118028915666448e-04 -6.9732227730135452e-04 0.0000000000000000e+00  -4.8161253106353615e-02 7.4921382569147210e-01 0.0000000000000000e+00  1.7026235592675229e-02 1.7447091525928782e+00 0.0000000000000000e+00  3.7542292690349158e-02 -3.2543927626475189e-01 0.0000000000000000e+00  -9.7331361590731441e-02 -7.2350944844149911e-01 0.0000000000000000e+00  4.2771298738643534e-02 -1.3992323119467389e+00 0.0000000000000000e+00  -7.5549408183513199e-04 -6.9191523706474043e-04 0.0000000000000000e+00  -5.8908417146718250e-01 -7.4838111515154782e-01 0.0000000000000000e+00  -2.5729878056715810e-01 2.5935464628096788e-01 0.0000000000000000e+00  4.5988493971194228e-02 7.5093555649224442e-01 0.0000000000000000e+00  -2.2638679080176957e-02 1.3408493640528876e+00 0.0000000000000000e+00  6.8886697575917685e-02 -9.4929052297157357e-01 0.0000000000000000e+00  2.6750462053512497e-04 -7.2880748765585259e-04 0.0000000000000000e+00  3.8082838369489412e-02 -7.4747532042614406e-01 0.0000000000000000e+00  2.5395730929613645e-02 1.1558069060943816e+00 0.0000000000000000e+00  -1.0766449764152411e-02 -1.1835356338449650e+00 0.0000000000000000e+00  -9.9390992648903803e-02 -1.2628567986386474e+00 0.0000000000000000e+00  -1.0105537208577440e+00 7.5340477351993045e-03 0.0000000000000000e+00  8.7147693092603571e-06 4.3223378046119241e-06 0.0000000000000000e+00  8.0392769002344905e-02 -4.9300783045395269e-01 0.0000000000000000e+00  -1.7650094690200885e-01 1.7631334002530501e+00 0.0000000000000000e+00  5.3240863235345230e-05 -1.4475492317092705e-04 0.0000000000000000e+00  7.2079639411295457e-02 1.0942989336228912e+00 0.0000000000000000e+00  3.5114912046530652e-02 4.9759454741895814e-01 0.0000000000000000e+00  -1.4537977617331298e-02 9.4473701012828470e-01 0.0000000000000000e+00  5.7531646297471800e-04 -9.0959028401434291e-04 0.0000000000000000e+00  3.9442230822942029e-02 -1.1422216001558263e+00 0.0000000000000000e+00  -3.4023631708681841e-02 -1.5707260624498975e+00 0.0000000000000000e+00  3.3524616259556078e-02 -1.4801050594393073e+00 0.0000000000000000e+00  1.1964211724455485e-01 4.6482311375658025e-01 0.0000000000000000e+00  2.5689793418652317e-02 1.6580864507329582e+00 0.0000000000000000e+00  3.2803378300989970e-02 -1.7302456227245759e+00 0.0000000000000000e+00  7.6202740495649152e-02 1.0702624900119404e+00 0.0000000000000000e+00  -1.2999063639578065e-01 -1.2946203712524305e+00 0.0000000000000000e+00  -3.4378734777492016e-02 -1.1743047705556824e+00 0.0000000000000000e+00  -1.5566973995662358e-02 1.2645493448171965e+00 0.0000000000000000e+00  1.3525518517570284e-03 -4.4214871331221497e-05 0.0000000000000000e+00  5.7323500654751921e-04 -9.5239384633944053e-04 0.0000000000000000e+00  -4.5176099963839902e-04 -6.4675709828158120e-04 0.0000000000000000e+00  -1.2271446466134259e-03 -4.4724832700189108e-04 0.0000000000000000e+00  -3.7116054138834642e-04 -5.4742401153236536e-04 0.0000000000000000e+00  9.7006230012806862e-06 2.2387699045393708e-06 0.0000000000000000e+00  1.7665568451147367e-03 -9.4402870907605319e-05 0.0000000000000000e+00  2.2856786435778522e-03 -8.3524264450071596e-04 0.0000000000000000e+00  -5.6046073245967568e-03 -1.4019894513287990e-03 0.0000000000000000e+00  -6.9355738601991734e-02 5.9025139528261894e-01 0.0000000000000000e+00  -1.1856801747531110e-02 -1.2937060886661369e+00 0.0000000000000000e+00  -2.4566199722310340e-02 -2.2559214385370815e-01 0.0000000000000000e+00  -1.1382121591282418e-01 -1.6288704157552942e+00 0.0000000000000000e+00  -9.5464926300652478e-04 7.1605581403921641e-04 0.0000000000000000e+00  -3.5998164328105771e-02 -1.6674873967432442e+00 0.0000000000000000e+00  1.0699157518573801e-02 -7.6677607511509094e-01 0.0000000000000000e+00  9.1711823832056102e-02 6.6145887578530349e-02 0.0000000000000000e+00  2.3409571014028177e-01 1.3665772857927541e+00 0.0000000000000000e+00  2.3572121207262545e-01 -1.5189575779897047e+00 0.0000000000000000e+00  -2.6229219661879667e-02 4.8181314031811584e-01 0.0000000000000000e+00  1.1512490701238903e-01 3.8923960630395638e-01 0.0000000000000000e+00  -1.1850849573513038e-01 -1.4636053962125048e+00 0.0000000000000000e+00  -1.9809055136726891e-01 -5.1583741062510902e-01 0.0000000000000000e+00  -1.3500821234188559e-01 1.5159587591964356e+00 0.0000000000000000e+00  -1.5030471596612272e-01 5.5821588827442525e-01 0.0000000000000000e+00  9.7127422794808904e-02 1.2721753024747071e+00 0.0000000000000000e+00  -6.6207065028945550e-02 1.4210863665489524e+00 0.0000000000000000e+00  -4.3291065272307923e-02 1.3279295998463525e+00 0.0000000000000000e+00  -6.7248175044869480e-03 -1.2460586054198153e+00 0.0000000000000000e+00  -4.0197105443579795e-02 -1.2243751255048827e+00 0.0000000000000000e+00  -1.4639428858611632e+00 -2.8656110009902630e-01 0.0000000000000000e+00  8.2420488409123208e-02 -7.8183028404687238e-01 0.0000000000000000e+00  5.3603107166335540e-01 -1.1084597633473245e+00 0.0000000000000000e+00  -2.1950371799590421e-02 8.9272302408166260e-01 0.0000000000000000e+00  1.9548689548908163e-02 1.2227265266386891e+00 0.0000000000000000e+00  -3.3666618767705547e-02 1.5327550135490844e+00 0.0000000000000000e+00  -6.1798267140122309e-01 2.7042683069468254e-01 0.0000000000000000e+00  6.3009553266282692e-01 -1.7159256874935014e-01 0.0000000000000000e+00  -3.7773890364894737e-02 1.6849350472676303e+00 0.0000000000000000e+00  9.4963891608497247e-02 -1.1640716090974192e+00 0.0000000000000000e+00  6.1364344711790086e-02 -1.1111278300559502e+00 0.0000000000000000e+00  -1.0316041372817286e-01 1.2874316556075474e+00 0.0000000000000000e+00  -3.4828121188104882e-01 5.4460120746770158e-01 0.0000000000000000e+00  -7.3693319254337386e-01 -1.2345813255712192e-01 0.0000000000000000e+00  8.2418235498914139e-02 -1.5158694626334617e+00 0.0000000000000000e+00  5.2511838033787908e-02 -6.3670175451903610e-01 0.0000000000000000e+00  1.7788367766208658e-02 -5.8263044655083740e-01 0.0000000000000000e+00  2.9201607117607224e-02 1.3012099303903883e+00 0.0000000000000000e+00  -1.5818798153694112e-04 -8.4528498438624877e-01 0.0000000000000000e+00  1.6513187423964900e-02 1.2435690063506282e+00 0.0000000000000000e+00  1.0866446180511097e-02 -1.0843296837298724e-01 0.0000000000000000e+00  -2.3607488037527932e-01 3.2163949981295425e-01 0.0000000000000000e+00  1.0580701379579621e-02 -1.4484989321713442e+00 0.0000000000000000e+00  2.6062664551405029e-02 1.6223398303967504e+00 0.0000000000000000e+00  6.1180138061974931e-01 2.2634765437478399e+00 0.0000000000000000e+00  7.0425882577954058e-01 2.2014174989935506e-01 0.0000000000000000e+00  3.9487251507981248e-02 5.0908887900767641e-01 0.0000000000000000e+00  -5.7243372534057863e-03 -6.1119889682975825e-01 0.0000000000000000e+00  -3.7409195022344313e-02 1.1386444437567713e+00 0.0000000000000000e+00  1.8622428686165607e-01 1.3282397075728243e+00 0.0000000000000000e+00  1.8858351577831004e-02 9.9531071617285194e-01 0.0000000000000000e+00  1.5399718403855925e-01 7.6047525268831573e-01 0.0000000000000000e+00  -3.6177106166363801e-03 -1.3050255108574207e+00 0.0000000000000000e+00  -1.0538159695085721e-01 1.9129959023230181e+00 0.0000000000000000e+00  1.8689287402162663e-01 1.5000783756584488e+00 0.0000000000000000e+00  -5.4431158922645706e-01 2.4986983189729481e+00 0.0000000000000000e+00  -1.3409195434963616e-02 1.4610223673606253e+00 0.0000000000000000e+00  1.3184280086621641e-01 -5.6025231361159367e-01 0.0000000000000000e+00  -7.1640905426195611e-02 -1.4134940954090862e+00 0.0000000000000000e+00  2.9764983569031350e-01 1.5334884280072816e+00 0.0000000000000000e+00  1.4402859297385817e-01 4.6920792598566485e-01 0.0000000000000000e+00  3.7330051906069672e-01 1.5938830320815631e+00 0.0000000000000000e+00  1.9692902879943811e-02 1.3212628567074047e+00 0.0000000000000000e+00  -7.3926051754700017e-02 -1.6097562525667160e+00 0.0000000000000000e+00  8.5957574059436718e-03 4.0159933204916543e-01 0.0000000000000000e+00  9.1190463183581766e-04 5.3943969742885143e-05 0.0000000000000000e+00  4.1542346579202041e-02 -9.3163573401092603e-01 0.0000000000000000e+00  -9.0433989228420940e-04 1.6584086854909927e+00 0.0000000000000000e+00  1.0176990313470922e+00 -2.4957559334492205e-01 0.0000000000000000e+00  1.4460731663951987e+00 -7.4247436275769652e-01 0.0000000000000000e+00  4.6023070560127159e-02 1.6494886678936638e+00 0.0000000000000000e+00  -6.6683858582238423e-02 -1.6724016444951544e+00 0.0000000000000000e+00  5.7153615014022281e-02 -1.3771029102823915e+00 0.0000000000000000e+00  4.1204068334216359e-02 1.5243462817396319e-01 0.0000000000000000e+00  7.7711591002183791e-02 7.3043228936326388e-01 0.0000000000000000e+00  7.0109028785978963e-04 -8.9132970799977724e-04 0.0000000000000000e+00  2.7985062413557060e-01 -1.2240055395107618e-02 0.0000000000000000e+00  -1.1221844309267509e-01 1.5052084695536916e+00 0.0000000000000000e+00  9.3558463279423687e-02 2.9991574762883894e-01 0.0000000000000000e+00  -1.6524418927391199e-01 7.1578880778455900e-01 0.0000000000000000e+00  1.0031903284445749e-01 -1.5669905358767233e+00 0.0000000000000000e+00  1.7840935607701502e-01 -1.1489126176806570e+00 0.0000000000000000e+00  -6.9898193896517358e-02 8.9145300316773823e-01 0.0000000000000000e+00  7.3165445461488052e-02 -1.0604316908917157e+00 0.0000000000000000e+00  7.3313118241136099e-03 -6.9672314807933133e-01 0.0000000000000000e+00  -6.3781478619732684e-02 -1.3934158231580876e-02 0.0000000000000000e+00  3.4364966311078979e-02 -1.6475279266371330e+00 0.0000000000000000e+00  -2.5243792883640426e-01 8.4201898378386186e-01 0.0000000000000000e+00  7.9455481683675411e-01 -5.9784678099574662e-01 0.0000000000000000e+00  -4.3602745338054574e-06 2.6721672360533542e-05 0.0000000000000000e+00  4.2112100882019096e-02 -1.5612607517913382e+00 0.0000000000000000e+00  -4.0772046571579756e-01 1.2350435232690773e+00 0.0000000000000000e+00  -2.7901667109756331e-02 1.3011419950672203e+00 0.0000000000000000e+00  4.3930260134159883e-02 4.9718692067097858e-01 0.0000000000000000e+00  -2.6957946651639109e-01 1.2176175732656558e+00 0.0000000000000000e+00  -1.4870029283312474e-02 1.1566179731794253e+00 0.0000000000000000e+00  -7.2151126091816536e-02 3.8112429450218210e-01 0.0000000000000000e+00  -2.0954921083035623e-03 -1.3748160435045045e+00 0.0000000000000000e+00  2.4166735379774852e-02 -5.6387127077863630e-01 0.0000000000000000e+00  4.6077315479931082e-02 9.4744296515968529e-01 0.0000000000000000e+00  -5.5620171471150448e-03 -1.5321092822798954e+00 0.0000000000000000e+00  5.3913320241538554e-02 8.1717963083645950e-01 0.0000000000000000e+00  -8.7716710083536809e-01 2.1838913207559538e+00 0.0000000000000000e+00  -1.1480503051734448e+00 1.4078456311350407e+00 0.0000000000000000e+00  7.5425685722708677e-02 1.4533353965312945e+00 0.0000000000000000e+00  2.9188875626951463e-02 3.6046587989571105e-01 0.0000000000000000e+00  2.7691270498286853e-02 1.3742386131313333e+00 0.0000000000000000e+00  -6.6850637340701194e-02 -9.3708085752610604e-01 0.0000000000000000e+00  -1.6593649621537050e-02 -6.7497948102723659e-01 0.0000000000000000e+00  2.9358827509516114e-02 -1.6609539267278117e+00 0.0000000000000000e+00  1.4762641213497579e-03 1.2298167815610926e-04 0.0000000000000000e+00  1.1937102763873594e-01 1.7802573567844837e+00 0.0000000000000000e+00  -6.8490782358780894e-02 1.8901194780240553e+00 0.0000000000000000e+00  -4.6089474195676189e-02 1.5992304536838868e+00 0.0000000000000000e+00  1.9247765449695187e-02 -4.7089502912515319e-01 0.0000000000000000e+00  -1.7366218510997029e-04 -7.3828061235503182e-04 0.0000000000000000e+00  1.4867067407123327e-01 1.5012354309516547e+00 0.00000000000000