<?xml version="1.0"?>
<VTKFile type="UnstructuredGrid"  version="0.1"  >
<UnstructuredGrid>
<Piece  NumberOfPoints="4961" NumberOfCells="9546">
<Points>
<DataArray  type="Float64"  NumberOfComponents="3"  format="ascii">0 1.5 0  -0 0.09117947244826481 0  0.0220162612375116 0.1293127555043441 0  0.05279126660105127 0.1634918616050268 0  0.09000000000000007 0.1905255888325765 0  0.1320162612375116 0.2092324335849338 0  0.1770037380811163 0.2187948169810202 0  0.2229962619188838 0.2187948169810201 0  0.2679837387624884 0.2092324335849338 0  0.3100000000000001 0.1905255888325765 0  0.3472087333989489 0.1634918616050267 0  0.3779837387624885 0.1293127555043441 0  0.4009800006813722 0.08948206147667603 0  0.4052662851173224 0.07629023443250138 0  0.4200599930048062 0.1082663100071745 0  0.4475409466961425 0.1444168863592189 0  0.4821507162738997 0.173814689612947 0  0.522270987378618 0.1950851111615262 0  0.5660257807239194 0.2072335697337205 0  0.6113691708029376 0.209692016908736 0  0.6561809510911363 0.2023454984290368 0  0.6983657725469559 0.1855375293336648 0  0.7359511198041838 0.1600540315768036 0  0.7671795437981852 0.1270865851906907 0  0.7895690044779959 0.089875012069959 0  0.7989002782867461 0.1116194513821486 0  0.825485631780658 0.1498156710261111 0  0.8592156240140376 0.1818784194956707 0  0.8987093451417441 0.2064950441012706 0  0.9423499175804944 0.222657737339227 0  0.9883506911670961 0.2297047966493422 0  1.034828388826053 0.2273477145954656 0  1.079880208154309 0.2156829903938285 0  1.121661722375201 0.1951881792237927 0  1.158462391387408 0.1667023410626976 0  1.188775591477674 0.1313916894718022 0  1.211360296672653 0.09070184667606328 0  1.225291886488074 0.04629865962039181 0  1.23 0 0  1.38 0 0  1.384807527838563 0.04574057197990705 0  1.399019999318628 0.08948206147667601 0  1.422016261237512 0.1293127555043441 0  1.452791266601051 0.1634918616050268 0  1.49 0.1905255888325765 0  1.532016261237512 0.2092324335849338 0  1.577003738081116 0.2187948169810202 0  1.622996261918884 0.2187948169810201 0  1.667983738762489 0.2092324335849338 0  1.71 0.1905255888325765 0  1.747208733398949 0.1634918616050267 0  1.763158635297163 0.1457777009465727 0  1.8 0.1732050807568878 0  1.842639353457782 0.1915979024630978 0  1.888371034217905 0.1996616316542537 0  1.934729635533386 0.1969615506024416 0  1.979215953207831 0.1836432213760548 0  2.019431718340557 0.1604246385510087 0  2.053208888623796 0.1285575219373079 0  2.078726528064682 0.08975983604009244 0  2.089496128668151 0.06017060156551748 0  2.099019999318628 0.08948206147667601 0  2.122016261237512 0.1293127555043441 0  2.152791266601051 0.1634918616050268 0  2.19 0.1905255888325765 0  2.232016261237511 0.2092324335849338 0  2.277003738081116 0.2187948169810202 0  2.322996261918884 0.2187948169810201 0  2.367983738762488 0.2092324335849338 0  2.41 0.1905255888325765 0  2.447208733398949 0.1634918616050267 0  2.457084733682728 0.1525234520934048 0  2.4821507162739 0.173814689612947 0  2.522270987378618 0.1950851111615262 0  2.56602578072392 0.2072335697337205 0  2.611369170802938 0.209692016908736 0  2.656180951091136 0.2023454984290368 0  2.698365772546956 0.1855375293336648 0  2.735951119804184 0.1600540315768036 0  2.767179543798185 0.1270865851906907 0  2.790590838130901 0.08817671132765556 0  2.805090316699118 0.04514379244431505 0  2.81 0 0  3 0 0  3 1.5 0  0 0.7956998320486358 0  0.4110904441558352 0.08887894789033324 0  0.7773699356874649 0.1101500221202465 0  1.5 1.5 0  3 0.75 0  0 0.4434396522484503 0  3 0.375 0  0 0.2673095623483576 0  0 0.1792445173983112 0  0 0.135211994923288 0  2.25 1.5 0  0.75 1.5 0  1.807676614587897 0.8837271123414687 0  1.04553857344641 0.8979441530181422 0  2.403437242208115 0.8132876225209357 0  0.5070864579510219 1.00719278150819 0  3 1.125 0  1.338035405010484 0.5883821138073757 0  2.625 1.5 0  0.3818338799394321 0.6099209340690734 0  2.067950237167102 0.5767429460037152 0  1.428016626639016 0.9663701540160734 0  1.875 1.5 0  2.136976695697423 1.114248364898298 0  1.125 1.5 0  0.375 1.5 0  0.7837785056474272 0.5924157926009261 0  2.621900904970652 1.121900904970652 0  0 1.147849916024318 0  1.717071692555337 0.550779009763445 0  1.678619011272733 1.204235418149387 0  0.8184015011321764 1.160011833453945 0  2.690771901920515 0.5625 0  1.191553529739931 1.18494431212041 0  2.361743998733192 0.516240498397431 0  2.727335050325185 0.8509414958930873 0  1.061120194703906 0.6196995992969355 0  0.269244960297408 0.8637990218922467 0  0.7609530458041533 0.8768664729047809 0  0.5625 1.286150286226427 0  0.2788879438654684 1.226607136693913 0  2.077535333020466 0.8486969269297693 0  2.4375 1.312474598220077 0  2.809426100237187 1.309426100237187 0  1.544358239139601 0.7389704993474611 0  1.434454912167138 1.210530519498476 0  2.380335199591509 1.061271835208851 0  1.926191456889599 1.252931474193008 0  0.5486378118088926 0.7757115443742588 0  0.5753328044103648 0.454959652232189 0  1.281333603460298 0.3634530521588742 0  0.9959109141311655 1.308173392725312 0  1.507364216928931 0.4358170942512657 0  1.21812632380771 0.7680504611018459 0  0 0.6195697421485431 0  1.3125 1.5 0  0.2892140007400885 0.4197188740688536 0  1.924109453869066 0.4139433366638808 0  0.9329747065756857 0.4375180073994652 0  2.243231692495831 0.684324343130167 0  2.0625 1.5 0  2.124178136191116 0.3821183579116478 0  1.923364695744858 0.7179848099571996 0  2.233034933769442 1.295537230099697 0  1.961794510294921 1.014032929092127 0  0.9133498533613748 0.7509830595402348 0  0 0.9717748740364769 0  0.1875 1.5 0  0 1.323924958012159 0  1.227107007305785 0.9862124750220198 0  1.616617139708145 0.9194004298184476 0  2.811636610329211 1.039737091854792 0  0.1901803394569171 0.5855957240372172 0  2.511165533602297 0.6467174115519351 0  2.536466024168012 0.9507486861843897 0  0.1866521719860137 1.047526440960541 0  2.74946330463778 0.3751246081287475 0  2.543804048982231 0.4145708923164018 0  0.9375 1.5 0  2.4375 1.5 0  0.5625 1.5 0  3 0.5625 0  1.6875 1.5 0  3 0.1875 0  3 0.9375 0  3 1.3125 0  2.8125 1.5 0  1.010044310702206 1.096645863828023 0  2.623488142128434 1.314011651358178 0  2.229558763998408 0.9540962470011799 0  2.845385950960257 0.65625 0  0.7525337220569124 0.4130199536593896 0  1.10537722367743 0.3921278680533664 0  0.6842290971134891 1.039833940778862 0  0.7386374643770518 1.32083913541365 0  1.553387564684306 1.08522930563603 0  1.788789291239656 1.06235950910253 0  1.559809215736361 1.334301807720895 0  1.750410104758408 0.7205088288478614 0  1.672011031024921 0.3842266692686779 0  1.77867146649739 1.349246747510312 0  1.21875 1.355246746101045 0  0.8723426006985372 1.001666865795386 0  1.380631426145093 0.7466576340788873 0  0.4259246536592668 0.3283409344703117 0  0.3444360723462823 1.008028502358495 0  0.6161474109915657 0.6198433096250735 0  0.4265019066463465 1.151756411601508 0  1.403034104827827 1.367717620859348 0  2.874684993382777 0.28125 0  2.874778249279309 0.46875 0  2.071314369495706 1.334001876948522 0  2.3 0.3730371416193449 0  1.322682484320052 1.105857305698365 0  1.563127563616163 0.5828461597844022 0  2.559040610931566 0.7958017532902765 0  1.213306121383676 0.5002133671656324 0  1.916121887065227 0.5659454196943852 0  2.207677378621353 0.5116761937353096 0  0.1257028237453774 1.235887437018238 0  0.7203062975228639 0.7304636720840537 0  0.3921145397364951 0.7663844669080319 0  2.70905347612285 0.7067207479465436 0  2.87968965213058 0.84375 0  0.1396742765227637 0.3714373577111671 0  0.1209675020841686 0.8837373530425563 0  0.1396318055029159 0.7309656161457982 0  0.4039274761094683 1.336239793581983 0  2.676470777350768 0.9877614171414461 0  0.2098223519481562 1.355491059017463 0  0.6161949108813681 0.9073080762684851 0  0.6728981805985057 1.187471545812503 0  0.4313243650936899 0.473428383024358 0  1.317579957488075 0.8752219089473544 0  1.05247475519209 0.7587740171666131 0  0.9218858728134471 0.6117854803862035 0  2.343741823603972 1.201704901656183 0  2.483180588903391 1.163054990844907 0  1.336494261441537 0.237261632693729 0  2.096334636915305 0.983917300563715 0  2.059942810014369 0.7131710752499992 0  1.940957218750955 0.8535106616369695 0  0.2735884026449029 0.6956028768230409 0  2.3791553829517 0.6794620539851567 0  2.443566922502795 0.3224565874575337 0  2.21140571429892 0.8179437442036444 0  2.863880028189143 1.175018869261394 0  1.212122991296861 0.6341965806889284 0  0.8702381850023826 1.37471255674248 0  0.4252003220264352 0.89843828480276 0  2.714126143737636 1.217200861470203 0  2.34375 1.406237299110039 0  2.71875 1.406237608026668 0  2.903224894283775 1.403224894283775 0  2.53125 1.5 0  1.444637821860123 0.3169971434781329 0  1.307097209138961 1.253815337580837 0  1.806074818262501 0.3310941379078186 0  0.09375 1.5 0  1.96875 1.5 0  1.467196512253796 0.8429542418758076 0  0.7811182225539175 0.2860230046382459 0  0.8880470276332622 0.8755399020562793 0  2.004554624687214 1.142507703833496 0  1.901808674873915 1.376717053991818 0  1.80956117606876 1.192202387775541 0  0.65625 1.5 0  2.256163989601168 1.076312782066936 0  2.35728348455407 0.9340561611988477 0  0.5508073343087652 1.161974855816299 0  1.822201850254356 0.484799098822588 0  0.6415475671733072 0.3394071993736185 0  0.6854011703162045 0.5171310296285601 0  2.010601404748645 0.3128962050875828 0  1.458109478391155 0.6494112449225909 0  1.556659288882675 1.21212759481645 0  2.15625 1.5 0  1.102952541966123 1.010721102324488 0  3 0.09375 0  2.905 0 0  1.698833571793874 0.8302602504158462 0  0.1128136071602732 0.4908067814983783 0  1.375215724596343 0.4593979824254396 0  1.667188501011557 1.033651962891267 0  0.5152717989473731 0.5573202673988191 0  0.4756630816937197 0.6823252715484635 0  2.485944291803511 0.5248037876852512 0  0.609375 1.393075143113214 0  1.657554629504312 0.6506084627130724 0  1.180547956106694 0.2992004577305749 0  1.040994897946075 0.4976964206623483 0  2.883588023402782 0.1625217501240843 0  1.437965738677728 1.09476840787
[...]
<PointData  Vectors="f_60"> 
<DataArray  type="Float64"  Name="f_60"  NumberOfComponents="3" format="ascii">-2.4778004210912968e-04 -5.3082387286262499e-04 0.0000000000000000e+00  -2.6647313211214591e-06 5.7429635958604555e-07 0.0000000000000000e+00  5.0181517650799810e-06 1.2410079663793149e-07 0.0000000000000000e+00  5.6652021563787772e-04 3.0103655357596997e-04 0.0000000000000000e+00  5.4486348463389869e-04 9.1819845526150054e-04 0.0000000000000000e+00  -7.8584861667717863e-04 7.3115740368438461e-04 0.0000000000000000e+00  -2.9647296038116048e-05 9.8259760470839402e-04 0.0000000000000000e+00  -1.9312188403031847e-04 9.2043765753638284e-04 0.0000000000000000e+00  -2.2784035020563805e-04 4.1611967747605622e-04 0.0000000000000000e+00  1.0201303866426469e-03 2.0502106451796939e-04 0.0000000000000000e+00  -6.2115363368526924e-04 1.1736800849792503e-03 0.0000000000000000e+00  -8.0691888546945118e-05 6.7620032141211389e-04 0.0000000000000000e+00  -7.0416950207531182e-06 -4.1256007992064881e-05 0.0000000000000000e+00  -6.1960754278371868e-05 3.5601943698031144e-05 0.0000000000000000e+00  2.9661083907637814e-04 3.3014761237070399e-04 0.0000000000000000e+00  2.9079598002374589e-05 5.1712907619436751e-04 0.0000000000000000e+00  -2.1926403786629175e-04 5.6626846802036756e-04 0.0000000000000000e+00  7.1841159766386801e-04 1.0906169773920635e-03 0.0000000000000000e+00  2.1676232126852354e-05 9.2533391933180477e-04 0.0000000000000000e+00  2.5659651068743607e-04 6.3634243998223134e-04 0.0000000000000000e+00  3.9931028456696676e-05 8.9649774791543261e-04 0.0000000000000000e+00  -4.4078648096588602e-04 9.8729014374679251e-04 0.0000000000000000e+00  -2.3551367834353981e-04 6.9809473369370216e-04 0.0000000000000000e+00  -1.2922207834186497e-04 3.6547567362338925e-04 0.0000000000000000e+00  6.2327118439620065e-05 4.5563590991594059e-05 0.0000000000000000e+00  -1.1888875739719848e-04 1.2564603092149473e-04 0.0000000000000000e+00  2.6769267723101528e-04 8.3323977035976832e-04 0.0000000000000000e+00  8.0817485466825483e-04 1.2729191044834757e-03 0.0000000000000000e+00  -8.1875813647638970e-04 6.7458987163586653e-04 0.0000000000000000e+00  3.6552484497516351e-04 7.2814990721557869e-04 0.0000000000000000e+00  1.4584699727697819e-04 8.0363020730897300e-04 0.0000000000000000e+00  -1.8537811399112306e-04 8.7602179647329112e-04 0.0000000000000000e+00  2.2512289136997430e-04 8.7083507462566397e-04 0.0000000000000000e+00  -4.0462574265455914e-04 1.1008750350352460e-03 0.0000000000000000e+00  4.2734366201091289e-04 -2.4028551185659741e-04 0.0000000000000000e+00  7.1473759581250557e-04 -3.9875684201848039e-04 0.0000000000000000e+00  -3.0306805489599853e-04 1.3972596465685742e-03 0.0000000000000000e+00  3.1115465941574289e-04 1.4949979094538858e-03 0.0000000000000000e+00  4.9600657876823582e-04 2.3859975920429168e-04 0.0000000000000000e+00  2.1483397949434888e-04 1.7076622042093035e-04 0.0000000000000000e+00  8.6503482268096587e-05 4.9316168578162462e-04 0.0000000000000000e+00  -8.3772673724337140e-05 5.0495167235225255e-04 0.0000000000000000e+00  -2.0016715425797413e-04 5.1647774987749245e-04 0.0000000000000000e+00  2.6403419113845957e-04 1.0779421183153060e-03 0.0000000000000000e+00  -2.2391013055504615e-04 7.9091784623928896e-04 0.0000000000000000e+00  1.4854901987595252e-04 6.1403016445655298e-04 0.0000000000000000e+00  4.0144432561560349e-05 1.0005105396111260e-03 0.0000000000000000e+00  -3.9223186230256875e-04 1.0371669262243006e-03 0.0000000000000000e+00  4.1707797836147492e-04 6.6114079099484325e-04 0.0000000000000000e+00  2.7781876200454474e-04 6.9145728074052385e-04 0.0000000000000000e+00  -5.3922793408599386e-04 3.0384373428441776e-04 0.0000000000000000e+00  -4.3607720621018867e-04 1.5458500660329124e-04 0.0000000000000000e+00  -3.9582096101238047e-04 4.4427073437867823e-04 0.0000000000000000e+00  6.4687312816709191e-04 6.1541613482778428e-04 0.0000000000000000e+00  -2.1682137401035560e-05 9.8344147933205456e-04 0.0000000000000000e+00  3.2230257570304351e-04 9.0225593744489420e-04 0.0000000000000000e+00  6.2051562995999929e-04 6.1168627747524153e-04 0.0000000000000000e+00  -5.8060483309849121e-04 7.7724161017884822e-04 0.0000000000000000e+00  -4.1824102297147425e-04 1.1493595276563624e-04 0.0000000000000000e+00  -2.6433510892780117e-05 -4.2323904366829999e-06 0.0000000000000000e+00  1.5740386319214176e-05 -1.2708903003554219e-05 0.0000000000000000e+00  -1.0428956458615368e-05 4.0694627022984729e-05 0.0000000000000000e+00  -1.0464933998579545e-04 -4.7769347306271325e-06 0.0000000000000000e+00  5.1485505011140791e-04 5.9293335513814136e-04 0.0000000000000000e+00  3.6337724856886879e-04 9.6525727127590557e-04 0.0000000000000000e+00  -1.1593052309672896e-04 8.0467583135255736e-04 0.0000000000000000e+00  1.4877121647035522e-04 8.5367723952178072e-04 0.0000000000000000e+00  -2.1636833341583960e-04 8.3411206004110601e-04 0.0000000000000000e+00  4.9041943611593381e-04 4.8597025417044680e-04 0.0000000000000000e+00  3.4033412851031868e-04 8.0538465512846311e-04 0.0000000000000000e+00  4.7942947158321472e-04 3.1692035896074573e-04 0.0000000000000000e+00  4.3426881311272892e-04 1.6808041230484194e-04 0.0000000000000000e+00  6.7209787455211841e-04 4.1244725664528009e-04 0.0000000000000000e+00  1.1468836134493571e-03 8.1055442555441235e-04 0.0000000000000000e+00  1.5199077159509184e-03 6.6161020036020301e-04 0.0000000000000000e+00  4.5957350553727785e-04 1.2318330308945622e-04 0.0000000000000000e+00  5.3711733741150427e-04 5.6768298110286889e-04 0.0000000000000000e+00  -5.2561361895268779e-04 4.9830089750844901e-05 0.0000000000000000e+00  5.2151827776046090e-04 -3.6931036007412815e-04 0.0000000000000000e+00  7.6296266863752767e-04 -4.1318386857750762e-04 0.0000000000000000e+00  -3.2857709567847462e-04 5.7047864012272752e-04 0.0000000000000000e+00  -2.7980473826298675e-05 -6.5343836492196542e-05 0.0000000000000000e+00  -8.8679859853552030e-05 -7.0472571955733967e-05 0.0000000000000000e+00  -7.6195228757387837e-03 -1.4393347251722597e-03 0.0000000000000000e+00  -1.9679755415640894e-03 -5.7886299802923008e-05 0.0000000000000000e+00  6.2926714151059148e-06 -1.3585897027011865e-05 0.0000000000000000e+00  -2.5384117296899285e-05 -1.4428147673198978e-05 0.0000000000000000e+00  -1.8050611060576967e-04 6.5755397860004202e-05 0.0000000000000000e+00  2.9071857979125497e-04 -7.7141191744945848e-04 0.0000000000000000e+00  -4.6011396817491687e-04 -6.7280944476762476e-04 0.0000000000000000e+00  1.0900452708538487e-05 4.6313607196660744e-05 0.0000000000000000e+00  -3.0518434997722581e-03 -1.7619675407455730e-03 0.0000000000000000e+00  5.6362442063048073e-04 1.6947488741304189e-03 0.0000000000000000e+00  4.2128747503395809e-04 5.5806145678359174e-04 0.0000000000000000e+00  1.1405315653114036e-05 3.4608584272168801e-06 0.0000000000000000e+00  -2.1108392400192197e-04 -7.6275094465781570e-04 0.0000000000000000e+00  2.1931101119306313e-04 -2.3984979082197747e-04 0.0000000000000000e+00  2.4260100713196942e-02 2.3555560838681742e+00 0.0000000000000000e+00  2.3716872903786393e-02 -2.1820878119384512e+00 0.0000000000000000e+00  8.9711561989155794e-02 2.8894961136680792e+00 0.0000000000000000e+00  -1.7863223993893278e-02 -8.0743870889957503e-01 0.0000000000000000e+00  1.3943760167436034e-03 1.4016768013644547e-04 0.0000000000000000e+00  1.1285691942814551e-01 -2.0522561133538622e+00 0.0000000000000000e+00  1.1989912847628302e-03 -8.8184091365133899e-04 0.0000000000000000e+00  8.8189860146927340e-02 -2.2805724115688075e-01 0.0000000000000000e+00  -6.1729485752194210e-02 2.0545020129115690e+00 0.0000000000000000e+00  5.1913039596550488e-04 1.9763667954378580e-01 0.0000000000000000e+00  2.7000056854430598e-04 -9.9926782667262930e-04 0.0000000000000000e+00  1.4598073471066506e-01 2.0205444460440605e+00 0.0000000000000000e+00  -2.4450781505726504e-04 -5.7861495414362053e-04 0.0000000000000000e+00  -3.0652965695778237e-05 -7.4151772996853063e-04 0.0000000000000000e+00  7.5578197578673567e-02 -1.7459098090708058e+00 0.0000000000000000e+00  5.8888165817911819e-01 -4.9823089471586930e-02 0.0000000000000000e+00  -1.3041163293765297e-05 -2.8923045874435253e-05 0.0000000000000000e+00  1.2375564207344618e-02 -2.9002266838620749e-01 0.0000000000000000e+00  -1.7911676118962747e-02 -1.7355180666400380e+00 0.0000000000000000e+00  -8.8676697578873503e-02 -1.8576887217452001e-01 0.0000000000000000e+00  -3.9442839078400965e-01 3.2653482562886573e+00 0.0000000000000000e+00  -1.0932919297790235e-01 2.2143081055966807e+00 0.0000000000000000e+00  -2.6012406342360017e-01 2.2461842455412846e+00 0.0000000000000000e+00  2.5109635806634467e-01 3.2737923237362154e+00 0.0000000000000000e+00  8.2241097795540258e-02 -2.1478941649677026e+00 0.0000000000000000e+00  5.2596792596239905e-03 1.6959058139494116e+00 0.0000000000000000e+00  2.6167583878347604e-02 -2.1650291855342632e+00 0.0000000000000000e+00  -1.7390025672659890e-01 1.6394201085639108e+00 0.0000000000000000e+00  -1.0499211017013220e-01 1.9923687414764486e+00 0.0000000000000000e+00  5.6574601063086503e-02 2.2775319235932026e+00 0.0000000000000000e+00  5.5522830914881061e-01 2.2905076830610422e+00 0.0000000000000000e+00  1.4986909643077140e+00 1.2343380669525381e+00 0.0000000000000000e+00  3.0505873448297399e-02 1.4344509453235510e+00 0.0000000000000000e+00  -8.2556654690959685e-02 5.7247499177301864e-01 0.0000000000000000e+00  3.2806369494350224e-01 2.4458391049404011e+00 0.0000000000000000e+00  4.8649220198245503e-02 -1.8157048435437306e+00 0.0000000000000000e+00  3.6016464150077990e-02 9.6621420209975695e-01 0.0000000000000000e+00  1.1194626535655140e-01 1.7658000761895216e+00 0.0000000000000000e+00  2.1000829855665570e-01 4.1073341017401996e-02 0.0000000000000000e+00  -9.9580800851402529e-02 -1.0686899669254344e+00 0.0000000000000000e+00  7.8287244441986745e-02 2.1533830968973380e+00 0.0000000000000000e+00  2.9414291234098038e-02 2.1198856292811059e+00 0.0000000000000000e+00  -5.3282170154979115e-07 -1.6514649710134934e-05 0.0000000000000000e+00  -7.3476019662472517e-04 -2.8036030733270091e-04 0.0000000000000000e+00  1.3160485718204579e-01 2.0956786229011279e+00 0.0000000000000000e+00  -1.0427225857226252e-01 -1.7742426654084986e+00 0.0000000000000000e+00  6.7390244647934611e-02 1.7790792744933659e+00 0.0000000000000000e+00  -1.3372791533554121e-01 -1.7206247336821776e+00 0.0000000000000000e+00  -1.0202086333587963e-03 -9.6824450875154506e-04 0.0000000000000000e+00  -2.0304102128689153e-01 1.9301320539768823e+00 0.0000000000000000e+00  -2.1360135000122047e-02 -1.6552413540554209e+00 0.0000000000000000e+00  2.4807510725458948e-01 -1.7534655068653908e+00 0.0000000000000000e+00  4.9822321031076408e-02 -1.9554420087121838e+00 0.0000000000000000e+00  2.9269290895783964e-02 2.1492852545590018e+00 0.0000000000000000e+00  1.2998694487567960e-05 -2.0321217051355561e-05 0.0000000000000000e+00  5.4944307519624728e-04 -1.1949170479102437e-03 0.0000000000000000e+00  6.9429567653126248e-05 -3.7823373214239392e-04 0.0000000000000000e+00  -3.1897069700829402e-02 1.8924819281234670e+00 0.0000000000000000e+00  1.8205925924465651e-02 -1.5799487089205480e+00 0.0000000000000000e+00  5.4947595143473593e-01 6.2650099737324427e-01 0.0000000000000000e+00  7.5295138519611574e-02 -1.5822157612788792e+00 0.0000000000000000e+00  -3.4782682657350450e-01 -8.8369049928580434e-01 0.0000000000000000e+00  1.4212072459911629e-01 -1.1614981736363836e+00 0.0000000000000000e+00  -1.0131942659276819e-02 -1.6404311613395033e+00 0.0000000000000000e+00  -1.3256948623287068e+00 6.6142986031352669e-01 0.0000000000000000e+00  -7.7952466455477043e-01 -1.2548996369079870e+00 0.0000000000000000e+00  5.8284440590109822e-04 -7.0764510499285839e-04 0.0000000000000000e+00  -6.4189498695992357e-05 -7.2161520825801456e-04 0.0000000000000000e+00  -5.5431847239861029e-04 -8.1526677298940874e-04 0.0000000000000000e+00  -2.4817795466313040e-03 -4.8661597501352096e-04 0.0000000000000000e+00  5.5740493367254786e-04 -8.0296104177819086e-04 0.0000000000000000e+00  -5.8955910844092447e-03 1.6842277696591055e-03 0.0000000000000000e+00  1.1586987657019291e-03 -2.8120457939446428e-04 0.0000000000000000e+00  4.4759884744804154e-04 -2.7381087527737183e-04 0.0000000000000000e+00  3.7404471614385115e-03 -1.0285310040343847e-03 0.0000000000000000e+00  -4.4129242053776822e-02 -1.5279080445553352e+00 0.0000000000000000e+00  8.3092701662635438e-01 -6.6857768554222152e-01 0.0000000000000000e+00  6.8480440346689792e-02 -1.5206882279948766e+00 0.0000000000000000e+00  -5.2929658947475111e-01 -4.2334906415316070e-01 0.0000000000000000e+00  7.5006365792574900e-02 -2.2115047715804068e+00 0.0000000000000000e+00  1.8143529015091309e-01 -9.5214628448171390e-01 0.0000000000000000e+00  -3.3762673975573365e-02 -4.8474787716178397e-01 0.0000000000000000e+00  -1.2376573362862123e-01 -2.1705628467333984e+00 0.0000000000000000e+00  -3.0463246707570987e-02 1.0143907125830256e+00 0.0000000000000000e+00  1.2994541723730357e-02 2.2934563012312705e+00 0.0000000000000000e+00  -1.5758817862853023e-02 6.1211156505002018e-01 0.0000000000000000e+00  2.1550155087061890e-02 1.2301117313434402e+00 0.0000000000000000e+00  2.8952607311781144e-02 -1.8749736813427287e+00 0.0000000000000000e+00  -1.1086896162071327e-01 1.9487992715410023e+00 0.0000000000000000e+00  -9.1305703094732169e-02 1.8265949529812229e+00 0.0000000000000000e+00  -4.6760104912771952e-02 1.8738880809061238e+00 0.0000000000000000e+00  6.5519121336494512e-02 -1.7609159739129729e+00 0.0000000000000000e+00  1.1789535045262492e-01 -1.7470239970383126e+00 0.0000000000000000e+00  -2.5687693503046619e-02 1.2511555502381619e+00 0.0000000000000000e+00  6.3840839721621911e-02 2.0801515231055578e+00 0.0000000000000000e+00  -4.7201602586125713e-02 -2.0136324198298716e+00 0.0000000000000000e+00  -2.9807227226734917e-01 -6.7419158538497004e-01 0.0000000000000000e+00  -1.2546480951825960e+00 1.6324529313167331e+00 0.0000000000000000e+00  -9.7156398606665062e-01 8.9709224703615487e-01 0.0000000000000000e+00  3.0486235514758906e-02 1.8069452598539091e+00 0.0000000000000000e+00  -2.7558963828757743e-01 -3.7945212027182867e-01 0.0000000000000000e+00  -3.0520664000928666e-02 -1.8609407103893782e+00 0.0000000000000000e+00  4.5401601214646030e-02 6.4854873201331631e-01 0.0000000000000000e+00  -1.1088932603265625e-01 -1.1834138602393522e+00 0.0000000000000000e+00  8.5627901179966590e-02 2.2299808166734074e+00 0.0000000000000000e+00  -5.6586877702406987e-02 -1.5193792950901721e+00 0.0000000000000000e+00  -2.2002052962016302e-01 -1.2117863966017861e+00 0.0000000000000000e+00  -2.0679020492799415e-02 -1.9891523743374571e+00 0.0000000000000000e+00  5.8976135625315562e-02 -1.7709250345765712e+00 0.0000000000000000e+00  5.1127249874847402e-02 -7.5955407391958352e-01 0.0000000000000000e+00  -7.4130971633900117e-02 3.3508508435506119e+00 0.0000000000000000e+00  -6.7120865014765338e-03 -3.0388125965403502e-02 0.0000000000000000e+00  1.1005231173962039e-01 -1.9910618261167106e+00 0.0000000000000000e+00  1.8210529695529040e-02 -1.9018009427705473e+00 0.0000000000000000e+00  3.8712046455330870e-02 -2.2314740851176960e+00 0.0000000000000000e+00  -7.5180817190424507e-02 -1.3553515448555047e+00 0.0000000000000000e+00  5.1611323967138323e-01 2.8434665665918919e+00 0.0000000000000000e+00  -2.4799956464725545e-01 -4.6978636519116757e-01 0.0000000000000000e+00  -1.3115507257594142e-02 2.0672617808262652e+00 0.0000000000000000e+00  -9.2199967290506252e-02 -4.1366483065626389e-02 0.0000000000000000e+00  1.4969132586489320e-01 -1.9951011217040648e+00 0.0000000000000000e+00  3.1556338183441654e-02 -1.6569413851758934e+00 0.0000000000000000e+00  5.8242109683120630e-02 -2.1910898709924447e+00 0.0000000000000000e+00  6.3861260704807438e-02 2.0343868613066927e+00 0.0000000000000000e+00  3.5235736806275120e-01 8.0259806135019607e-01 0.0000000000000000e+00  4.5973476787912904e-01 8.4532920387694099e-01 0.0000000000000000e+00  1.7539346110262533e-01 -1.8839017956878377e+00 0.0000000000000000e+00  1.0679375529259939e-01 2.5248144104196508e+00 0.0000000000000000e+00  -2.9382911194233280e-03 1.7983879008312249e+00 0.0000000000000000e+00  1.1476735476708919e-02 -1.9364990500647208e+00 0.0000000000000000e+00  4.0048324958345663e-02 1.7991393410941823e+00 0.0000000000000000e+00  -6.6921304032912257e-02 2.6748247121411368e+00 0.0000000000000000e+00  -7.4978311879444381e-01 7.1452712601744162e-01 0.0000000000000000e+00  -2.3095362413387745e-02 -1.0652214525069941e+00 0.0000000000000000e+00  8.9345402803892671e-01 -5.6692899223461823e-01 0.0000000000000000e+00  5.8433525180160220e-02 2.2160158344440801e+00 0.0000000000000000e+00  -3.0775288914208104e-01 1.7120547347220549e+00 0.0000000000000000e+00  2.6433062203285135e-02 -1.9484207029637841e+00 0.0000000000000000e+00  1.0863285161690084e+00 3.1510146158114014e+00 0.0000000000000000e+00  -7.2244982034853286e-02 5.1270401497964568e-01 0.0000000000000000e+00  1.1148026307091909e+00 2.0647338870791216e+00 0.0000000000000000e+00  2.1157824160816343e+00 -1.1651182962496711e+00 0.0000000000000000e+00  -3.6533170543411839e-04 -1.0544003635617753e-03 0.0000000000000000e+00  1.4607117297943403e-01 5.4665775292452201e-01 0.0000000000000000e+00  -8.0280925307812057e-02 -1.4477608753908826e+00 0.0000000000000000e+00  -3.9587648649597358e-02 2.1468530640353771e+00 0.0000000000000000e+00  -4.0726822787703475e-04 -7.2275606777284188e-04 0.0000000000000000e+00  4.6224514679559696e-04 -3.0302266831811034e-04 0.0000000000000000e+00  2.0220477039751120e-02 1.7489104450977027e+00 0.0000000000000000e+00  2.6683582527236899e-01 -1.5596343390053053e+00 0.0000000000000000e+00  -7.0584204195915049e-03 2.1439547249834150e+00 0.0000000000000000e+00  8.4696176829146125e-02 -8.3258651113709081e-01 0.0000000000000000e+00  1.9190670187018519e-01 -9.7503544431639144e-01 0.0000000000000000e+00  -5.5994850834268778e-03 2.2965121677893214e+00 0.0000000000000000e+00  4.1772629710116571e-04 -7.8215714636771082e-04 0.0000000000000000e+00  1.6361236160206338e-01 -1.8378158767040276e+00 0.0000000000000000e+00  1.8829932750769959e-01 1.8438061381679935e+00 0.0000000000000000e+00  -9.5691011637954806e-02 1.2087356080227436e+00 0.0000000000000000e+00  -2.6029657254446399e-02 2.0534787058895816e+00 0.0000000000000000e+00  3.4659185971177210e-02 1.3402645903352137e+00 0.0000000000000000e+00  7.9863886359612155e-02 -4.0094550024592590e-01 0.0000000000000000e+00  3.9580660074107085e-02 -3.8672973226539126e-01 0.0000000000000000e+00  6.3665705903208983e-02 1.3850470038536060e+00 0.0000000000000000e+00  -6.0758269660268149e-02 8.1342625462838625e-01 0.0000000000000000e+00  7.7462338926751687e-04 -9.3933147489640904e-04 0.0000000000000000e+00  -1.8285008670010882e-02 -9.3224372311265324e-01 0.0000000000000000e+00  -6.2873699349824883e-03 -1.1787833646036878e-03 0.0000000000000000e+00  -4.0283857840974049e-04 -1.2611992748254278e-04 0.0000000000000000e+00  2.6658017146196790e-02 -1.0551421640850354e+00 0.0000000000000000e+00  7.4564275479872016e-02 -1.5249518733461336e+00 0.0000000000000000e+00  1.6069120941359288e-01 -1.9533029285654693e+00 0.0000000000000000e+00  1.2686616742967685e-02 -1.9748130971626643e+00 0.0000000000000000e+00  1.1145270443289647e-01 -6.1874405481775896e-01 0.0000000000000000e+00  8.4061529172212268e-02 -1.9828735759938299e+00 0.0000000000000000e+00  -5.0589896209848695e-01 -3.4126530114515535e-01 0.0000000000000000e+00  -8.3697396814161676e-02 1.7581803535175333e+00 0.0000000000000000e+00  2.8131029694991660e-02 -2.0899423973715971e+00 0.0000000000000000e+00  4.3377042862512311e-01 1.8553290371654250e+00 0.0000000000000000e+00  9.4084534336858705e-02 -2.1141325026319913e+00 0.0000000000000000e+00  -7.5297663938596571e-01 1.7826078534596399e+00 0.0000000000000000e+00  -3.8557256746032484e-02 6.9212554041637930e-01 0.0000000000000000e+00  -7.8912503995184707e-02 -1.9746858315627152e+00 0.0000000000000000e+00  -1.1233973077183626e-01 1.4779364459806146e+00 0.0000000000000000e+00  -3.7699646501021172e-01 -8.538353425535215