<?xml version="1.0"?>
<VTKFile type="UnstructuredGrid"  version="0.1"  >
<UnstructuredGrid>
<Piece  NumberOfPoints="4961" NumberOfCells="9546">
<Points>
<DataArray  type="Float64"  NumberOfComponents="3"  format="ascii">0 1.5 0  -0 0.09117947244826481 0  0.0220162612375116 0.1293127555043441 0  0.05279126660105127 0.1634918616050268 0  0.09000000000000007 0.1905255888325765 0  0.1320162612375116 0.2092324335849338 0  0.1770037380811163 0.2187948169810202 0  0.2229962619188838 0.2187948169810201 0  0.2679837387624884 0.2092324335849338 0  0.3100000000000001 0.1905255888325765 0  0.3472087333989489 0.1634918616050267 0  0.3779837387624885 0.1293127555043441 0  0.4009800006813722 0.08948206147667603 0  0.4052662851173224 0.07629023443250138 0  0.4200599930048062 0.1082663100071745 0  0.4475409466961425 0.1444168863592189 0  0.4821507162738997 0.173814689612947 0  0.522270987378618 0.1950851111615262 0  0.5660257807239194 0.2072335697337205 0  0.6113691708029376 0.209692016908736 0  0.6561809510911363 0.2023454984290368 0  0.6983657725469559 0.1855375293336648 0  0.7359511198041838 0.1600540315768036 0  0.7671795437981852 0.1270865851906907 0  0.7895690044779959 0.089875012069959 0  0.7989002782867461 0.1116194513821486 0  0.825485631780658 0.1498156710261111 0  0.8592156240140376 0.1818784194956707 0  0.8987093451417441 0.2064950441012706 0  0.9423499175804944 0.222657737339227 0  0.9883506911670961 0.2297047966493422 0  1.034828388826053 0.2273477145954656 0  1.079880208154309 0.2156829903938285 0  1.121661722375201 0.1951881792237927 0  1.158462391387408 0.1667023410626976 0  1.188775591477674 0.1313916894718022 0  1.211360296672653 0.09070184667606328 0  1.225291886488074 0.04629865962039181 0  1.23 0 0  1.38 0 0  1.384807527838563 0.04574057197990705 0  1.399019999318628 0.08948206147667601 0  1.422016261237512 0.1293127555043441 0  1.452791266601051 0.1634918616050268 0  1.49 0.1905255888325765 0  1.532016261237512 0.2092324335849338 0  1.577003738081116 0.2187948169810202 0  1.622996261918884 0.2187948169810201 0  1.667983738762489 0.2092324335849338 0  1.71 0.1905255888325765 0  1.747208733398949 0.1634918616050267 0  1.763158635297163 0.1457777009465727 0  1.8 0.1732050807568878 0  1.842639353457782 0.1915979024630978 0  1.888371034217905 0.1996616316542537 0  1.934729635533386 0.1969615506024416 0  1.979215953207831 0.1836432213760548 0  2.019431718340557 0.1604246385510087 0  2.053208888623796 0.1285575219373079 0  2.078726528064682 0.08975983604009244 0  2.089496128668151 0.06017060156551748 0  2.099019999318628 0.08948206147667601 0  2.122016261237512 0.1293127555043441 0  2.152791266601051 0.1634918616050268 0  2.19 0.1905255888325765 0  2.232016261237511 0.2092324335849338 0  2.277003738081116 0.2187948169810202 0  2.322996261918884 0.2187948169810201 0  2.367983738762488 0.2092324335849338 0  2.41 0.1905255888325765 0  2.447208733398949 0.1634918616050267 0  2.457084733682728 0.1525234520934048 0  2.4821507162739 0.173814689612947 0  2.522270987378618 0.1950851111615262 0  2.56602578072392 0.2072335697337205 0  2.611369170802938 0.209692016908736 0  2.656180951091136 0.2023454984290368 0  2.698365772546956 0.1855375293336648 0  2.735951119804184 0.1600540315768036 0  2.767179543798185 0.1270865851906907 0  2.790590838130901 0.08817671132765556 0  2.805090316699118 0.04514379244431505 0  2.81 0 0  3 0 0  3 1.5 0  0 0.7956998320486358 0  0.4110904441558352 0.08887894789033324 0  0.7773699356874649 0.1101500221202465 0  1.5 1.5 0  3 0.75 0  0 0.4434396522484503 0  3 0.375 0  0 0.2673095623483576 0  0 0.1792445173983112 0  0 0.135211994923288 0  2.25 1.5 0  0.75 1.5 0  1.807676614587897 0.8837271123414687 0  1.04553857344641 0.8979441530181422 0  2.403437242208115 0.8132876225209357 0  0.5070864579510219 1.00719278150819 0  3 1.125 0  1.338035405010484 0.5883821138073757 0  2.625 1.5 0  0.3818338799394321 0.6099209340690734 0  2.067950237167102 0.5767429460037152 0  1.428016626639016 0.9663701540160734 0  1.875 1.5 0  2.136976695697423 1.114248364898298 0  1.125 1.5 0  0.375 1.5 0  0.7837785056474272 0.5924157926009261 0  2.621900904970652 1.121900904970652 0  0 1.147849916024318 0  1.717071692555337 0.550779009763445 0  1.678619011272733 1.204235418149387 0  0.8184015011321764 1.160011833453945 0  2.690771901920515 0.5625 0  1.191553529739931 1.18494431212041 0  2.361743998733192 0.516240498397431 0  2.727335050325185 0.8509414958930873 0  1.061120194703906 0.6196995992969355 0  0.269244960297408 0.8637990218922467 0  0.7609530458041533 0.8768664729047809 0  0.5625 1.286150286226427 0  0.2788879438654684 1.226607136693913 0  2.077535333020466 0.8486969269297693 0  2.4375 1.312474598220077 0  2.809426100237187 1.309426100237187 0  1.544358239139601 0.7389704993474611 0  1.434454912167138 1.210530519498476 0  2.380335199591509 1.061271835208851 0  1.926191456889599 1.252931474193008 0  0.5486378118088926 0.7757115443742588 0  0.5753328044103648 0.454959652232189 0  1.281333603460298 0.3634530521588742 0  0.9959109141311655 1.308173392725312 0  1.507364216928931 0.4358170942512657 0  1.21812632380771 0.7680504611018459 0  0 0.6195697421485431 0  1.3125 1.5 0  0.2892140007400885 0.4197188740688536 0  1.924109453869066 0.4139433366638808 0  0.9329747065756857 0.4375180073994652 0  2.243231692495831 0.684324343130167 0  2.0625 1.5 0  2.124178136191116 0.3821183579116478 0  1.923364695744858 0.7179848099571996 0  2.233034933769442 1.295537230099697 0  1.961794510294921 1.014032929092127 0  0.9133498533613748 0.7509830595402348 0  0 0.9717748740364769 0  0.1875 1.5 0  0 1.323924958012159 0  1.227107007305785 0.9862124750220198 0  1.616617139708145 0.9194004298184476 0  2.811636610329211 1.039737091854792 0  0.1901803394569171 0.5855957240372172 0  2.511165533602297 0.6467174115519351 0  2.536466024168012 0.9507486861843897 0  0.1866521719860137 1.047526440960541 0  2.74946330463778 0.3751246081287475 0  2.543804048982231 0.4145708923164018 0  0.9375 1.5 0  2.4375 1.5 0  0.5625 1.5 0  3 0.5625 0  1.6875 1.5 0  3 0.1875 0  3 0.9375 0  3 1.3125 0  2.8125 1.5 0  1.010044310702206 1.096645863828023 0  2.623488142128434 1.314011651358178 0  2.229558763998408 0.9540962470011799 0  2.845385950960257 0.65625 0  0.7525337220569124 0.4130199536593896 0  1.10537722367743 0.3921278680533664 0  0.6842290971134891 1.039833940778862 0  0.7386374643770518 1.32083913541365 0  1.553387564684306 1.08522930563603 0  1.788789291239656 1.06235950910253 0  1.559809215736361 1.334301807720895 0  1.750410104758408 0.7205088288478614 0  1.672011031024921 0.3842266692686779 0  1.77867146649739 1.349246747510312 0  1.21875 1.355246746101045 0  0.8723426006985372 1.001666865795386 0  1.380631426145093 0.7466576340788873 0  0.4259246536592668 0.3283409344703117 0  0.3444360723462823 1.008028502358495 0  0.6161474109915657 0.6198433096250735 0  0.4265019066463465 1.151756411601508 0  1.403034104827827 1.367717620859348 0  2.874684993382777 0.28125 0  2.874778249279309 0.46875 0  2.071314369495706 1.334001876948522 0  2.3 0.3730371416193449 0  1.322682484320052 1.105857305698365 0  1.563127563616163 0.5828461597844022 0  2.559040610931566 0.7958017532902765 0  1.213306121383676 0.5002133671656324 0  1.916121887065227 0.5659454196943852 0  2.207677378621353 0.5116761937353096 0  0.1257028237453774 1.235887437018238 0  0.7203062975228639 0.7304636720840537 0  0.3921145397364951 0.7663844669080319 0  2.70905347612285 0.7067207479465436 0  2.87968965213058 0.84375 0  0.1396742765227637 0.3714373577111671 0  0.1209675020841686 0.8837373530425563 0  0.1396318055029159 0.7309656161457982 0  0.4039274761094683 1.336239793581983 0  2.676470777350768 0.9877614171414461 0  0.2098223519481562 1.355491059017463 0  0.6161949108813681 0.9073080762684851 0  0.6728981805985057 1.187471545812503 0  0.4313243650936899 0.473428383024358 0  1.317579957488075 0.8752219089473544 0  1.05247475519209 0.7587740171666131 0  0.9218858728134471 0.6117854803862035 0  2.343741823603972 1.201704901656183 0  2.483180588903391 1.163054990844907 0  1.336494261441537 0.237261632693729 0  2.096334636915305 0.983917300563715 0  2.059942810014369 0.7131710752499992 0  1.940957218750955 0.8535106616369695 0  0.2735884026449029 0.6956028768230409 0  2.3791553829517 0.6794620539851567 0  2.443566922502795 0.3224565874575337 0  2.21140571429892 0.8179437442036444 0  2.863880028189143 1.175018869261394 0  1.212122991296861 0.6341965806889284 0  0.8702381850023826 1.37471255674248 0  0.4252003220264352 0.89843828480276 0  2.714126143737636 1.217200861470203 0  2.34375 1.406237299110039 0  2.71875 1.406237608026668 0  2.903224894283775 1.403224894283775 0  2.53125 1.5 0  1.444637821860123 0.3169971434781329 0  1.307097209138961 1.253815337580837 0  1.806074818262501 0.3310941379078186 0  0.09375 1.5 0  1.96875 1.5 0  1.467196512253796 0.8429542418758076 0  0.7811182225539175 0.2860230046382459 0  0.8880470276332622 0.8755399020562793 0  2.004554624687214 1.142507703833496 0  1.901808674873915 1.376717053991818 0  1.80956117606876 1.192202387775541 0  0.65625 1.5 0  2.256163989601168 1.076312782066936 0  2.35728348455407 0.9340561611988477 0  0.5508073343087652 1.161974855816299 0  1.822201850254356 0.484799098822588 0  0.6415475671733072 0.3394071993736185 0  0.6854011703162045 0.5171310296285601 0  2.010601404748645 0.3128962050875828 0  1.458109478391155 0.6494112449225909 0  1.556659288882675 1.21212759481645 0  2.15625 1.5 0  1.102952541966123 1.010721102324488 0  3 0.09375 0  2.905 0 0  1.698833571793874 0.8302602504158462 0  0.1128136071602732 0.4908067814983783 0  1.375215724596343 0.4593979824254396 0  1.667188501011557 1.033651962891267 0  0.5152717989473731 0.5573202673988191 0  0.4756630816937197 0.6823252715484635 0  2.485944291803511 0.5248037876852512 0  0.609375 1.393075143113214 0  1.657554629504312 0.6506084627130724 0  1.180547956106694 0.2992004577305749 0  1.040994897946075 0.4976964206623483 0  2.883588023402782 0.1625217501240843 0  1.437965738677728 1.09476840787
[...]
<PointData  Vectors="f_60"> 
<DataArray  type="Float64"  Name="f_60"  NumberOfComponents="3" format="ascii">-1.7909194270992936e-05 -6.6688510873670777e-04 0.0000000000000000e+00  6.9807533665080838e-07 6.1292554533924033e-06 0.0000000000000000e+00  3.0418256689482115e-05 1.5313336576163693e-05 0.0000000000000000e+00  5.4278068113925012e-04 4.2034680467274466e-04 0.0000000000000000e+00  3.9090834129450929e-04 7.1365011267972625e-04 0.0000000000000000e+00  -6.2967593995886932e-04 6.5367990759919968e-04 0.0000000000000000e+00  2.2329425123857177e-04 9.0635936754433018e-04 0.0000000000000000e+00  -2.2931685201050932e-04 7.9244832159517189e-04 0.0000000000000000e+00  -2.8891509633118152e-04 4.8534069740428445e-04 0.0000000000000000e+00  8.7734719201580874e-04 7.4704747609659030e-05 0.0000000000000000e+00  -6.4614753095567669e-04 9.5867205234929204e-04 0.0000000000000000e+00  -1.8430863708192782e-04 7.7190460389766475e-04 0.0000000000000000e+00  -9.7572860900539957e-06 3.5955088137808003e-05 0.0000000000000000e+00  -1.1308952402671381e-04 1.1425732194935585e-04 0.0000000000000000e+00  2.3819517545327408e-04 4.2515497780859572e-04 0.0000000000000000e+00  -7.7704821186168324e-06 5.8328071710110803e-04 0.0000000000000000e+00  -7.7203532050740839e-05 6.0177087347663787e-04 0.0000000000000000e+00  6.3014904260988794e-04 9.4440067504366547e-04 0.0000000000000000e+00  -7.9781390681983835e-05 7.0176081226626527e-04 0.0000000000000000e+00  2.9690904632054379e-04 6.1445127093371515e-04 0.0000000000000000e+00  2.4543428158277386e-05 8.1253232424875483e-04 0.0000000000000000e+00  -3.7475281999644879e-04 9.1825753351039581e-04 0.0000000000000000e+00  -1.2923001185932505e-04 6.9411182266740509e-04 0.0000000000000000e+00  -9.5558038139356198e-05 4.7307360699349465e-04 0.0000000000000000e+00  4.4959668955478984e-05 9.7567876438670292e-05 0.0000000000000000e+00  -1.1408285103150041e-04 2.5812730285068900e-04 0.0000000000000000e+00  3.7000352339420676e-04 9.1665022799837092e-04 0.0000000000000000e+00  6.7542852627229782e-04 1.0480781899925235e-03 0.0000000000000000e+00  -7.9373383150712978e-04 2.9329897117934516e-04 0.0000000000000000e+00  4.0130053519189541e-04 7.8581513590697495e-04 0.0000000000000000e+00  4.7961578441680002e-05 7.2660835899906757e-04 0.0000000000000000e+00  -9.5079557987218932e-05 8.1108731497520862e-04 0.0000000000000000e+00  3.9250308206854531e-04 6.6713145481948042e-04 0.0000000000000000e+00  -3.8528905540376527e-04 9.9436354123806549e-04 0.0000000000000000e+00  2.8455223422117049e-04 -1.0692501530890303e-04 0.0000000000000000e+00  4.8992797901694415e-04 -4.7869115911403857e-04 0.0000000000000000e+00  -2.9060289304045359e-04 7.7063870073481471e-04 0.0000000000000000e+00  2.9657507933031585e-04 1.7048483127950628e-03 0.0000000000000000e+00  7.5341211837373927e-04 5.1959922627923519e-04 0.0000000000000000e+00  1.4936419011319656e-04 2.3501604179737166e-04 0.0000000000000000e+00  -6.7499973239769996e-05 5.0379892568442979e-04 0.0000000000000000e+00  -1.3403604552212836e-04 4.6032261628100831e-04 0.0000000000000000e+00  -1.0959038852568859e-04 5.6193590046645927e-04 0.0000000000000000e+00  2.0293301100850279e-04 8.2445903491012789e-04 0.0000000000000000e+00  -2.3882898683581102e-04 5.4783683250428491e-04 0.0000000000000000e+00  1.9433793687938513e-04 6.7371137522531232e-04 0.0000000000000000e+00  -3.3321061766673185e-05 9.1814295490698318e-04 0.0000000000000000e+00  -3.5667944127226725e-04 9.2860609578711414e-04 0.0000000000000000e+00  4.4163230537109155e-04 5.3691644254639625e-04 0.0000000000000000e+00  3.0591676096160248e-04 5.6636073056551793e-04 0.0000000000000000e+00  -4.7131033972316004e-04 4.5314405468153398e-04 0.0000000000000000e+00  -5.0243883441411735e-04 2.9934790042809975e-04 0.0000000000000000e+00  -2.9708180141302225e-04 5.7096021427174035e-04 0.0000000000000000e+00  6.2733911706397958e-04 6.7308675822354410e-04 0.0000000000000000e+00  -1.8386519871761516e-04 8.3018550460553086e-04 0.0000000000000000e+00  1.8414653640615956e-04 8.7081456170698185e-04 0.0000000000000000e+00  6.6246024372472630e-04 4.9919053941695646e-04 0.0000000000000000e+00  -5.1675961922667481e-04 7.0852931522359056e-04 0.0000000000000000e+00  -4.3555800404096755e-04 1.7407545192238931e-04 0.0000000000000000e+00  -4.3463638363937618e-05 1.4545291987283055e-05 0.0000000000000000e+00  4.1313507475088365e-06 -5.8487710410769056e-06 0.0000000000000000e+00  -2.4128987491195805e-05 5.2452938623726464e-05 0.0000000000000000e+00  -9.2495564075189933e-05 1.0402364536119508e-04 0.0000000000000000e+00  6.1528715590548726e-04 6.4326331166970831e-04 0.0000000000000000e+00  3.0591881105899082e-04 7.2864488253844171e-04 0.0000000000000000e+00  -3.7085845268653350e-04 6.1812325953153108e-04 0.0000000000000000e+00  3.0174135133310791e-04 8.1262527870324070e-04 0.0000000000000000e+00  9.3384557800259337e-05 8.6081646365897822e-04 0.0000000000000000e+00  3.6591996071735265e-04 3.6509054597405019e-04 0.0000000000000000e+00  3.3281794491773060e-04 8.2677443898573617e-04 0.0000000000000000e+00  6.2576851313209125e-04 8.9390480968272598e-04 0.0000000000000000e+00  6.9790180316082074e-04 6.0443221383602941e-04 0.0000000000000000e+00  8.9076957849737860e-04 7.7819120896054409e-04 0.0000000000000000e+00  6.1169149121085480e-04 8.2036044053060701e-04 0.0000000000000000e+00  8.2856239938451485e-04 5.7644031847837150e-04 0.0000000000000000e+00  5.5441924452679205e-04 -2.7714499034807509e-04 0.0000000000000000e+00  1.0269228278452795e-03 -4.5177412570003822e-04 0.0000000000000000e+00  -5.4150973544032081e-05 -1.6688760485101623e-04 0.0000000000000000e+00  -6.5010665211183720e-04 -1.8991991095140624e-05 0.0000000000000000e+00  -4.5799394906064467e-06 -2.3870899469607656e-04 0.0000000000000000e+00  5.3479968755827689e-04 -3.8653759660580426e-04 0.0000000000000000e+00  1.6362830756827112e-04 -1.2764221471443443e-04 0.0000000000000000e+00  4.0209540860298233e-05 -7.0319106891908331e-05 0.0000000000000000e+00  -9.9087581041550892e-03 -1.3910069565727151e-03 0.0000000000000000e+00  -1.8762818040938738e-03 -1.9984128476640056e-04 0.0000000000000000e+00  9.5713630992341246e-07 -1.6251571027938043e-07 0.0000000000000000e+00  -4.4277568501314461e-05 1.9644363566175975e-05 0.0000000000000000e+00  -2.1663619809423994e-04 1.1543948558316103e-04 0.0000000000000000e+00  1.5047351763468894e-04 -7.5078929337016450e-04 0.0000000000000000e+00  2.8548622334829266e-04 -3.5932693052584543e-04 0.0000000000000000e+00  2.0490839146616786e-05 5.6916417181430686e-05 0.0000000000000000e+00  -2.2762864011150030e-03 3.3400196537859456e-04 0.0000000000000000e+00  3.1257483204487916e-04 1.1193929046589381e-03 0.0000000000000000e+00  2.8227356032776735e-04 6.4056337683665566e-04 0.0000000000000000e+00  2.9172073764671479e-05 2.4522604882219156e-05 0.0000000000000000e+00  -9.7878068068654934e-05 -7.3314548860948505e-04 0.0000000000000000e+00  1.6186675707918809e-04 -2.4036844563147031e-04 0.0000000000000000e+00  1.6166402784988942e-02 1.7072246684705885e+00 0.0000000000000000e+00  1.1090604650924013e-02 -1.5837923284883195e+00 0.0000000000000000e+00  3.9854448748346767e-02 2.1073301073402679e+00 0.0000000000000000e+00  -1.4541213822638135e-02 -5.9915186554302469e-01 0.0000000000000000e+00  1.8095479411349702e-03 1.1355079689140884e-04 0.0000000000000000e+00  7.2889514008542711e-02 -1.5115443988047872e+00 0.0000000000000000e+00  -7.6008925751740028e-06 -7.3308050758484785e-04 0.0000000000000000e+00  6.2458688185831605e-02 -2.1126551755504902e-01 0.0000000000000000e+00  -5.5847322220498423e-02 1.4736833853544793e+00 0.0000000000000000e+00  -1.0064292319791391e-03 1.4216438119746738e-01 0.0000000000000000e+00  3.7210348976729349e-04 -8.5189501171781094e-04 0.0000000000000000e+00  1.0347562132903103e-01 1.4181151858234236e+00 0.0000000000000000e+00  -1.8809103202582791e-04 -5.8256025882273536e-04 0.0000000000000000e+00  1.9668620340000296e-04 -6.9637132238637919e-04 0.0000000000000000e+00  5.1308323956173275e-02 -1.2482568112858949e+00 0.0000000000000000e+00  4.4817710756264179e-01 2.4042826587384911e-01 0.0000000000000000e+00  -1.8790266919442500e-05 7.0142733139239681e-06 0.0000000000000000e+00  7.4445801089580614e-03 -2.0340374047661267e-01 0.0000000000000000e+00  -1.9446105496390989e-02 -1.2627180600048455e+00 0.0000000000000000e+00  -6.3139888813793871e-02 -1.7894429647668073e-01 0.0000000000000000e+00  -3.3467915997613723e-01 2.4629741140135009e+00 0.0000000000000000e+00  -7.0202528705793008e-02 1.5988493549030756e+00 0.0000000000000000e+00  -2.0811923235963559e-01 1.5667746194616086e+00 0.0000000000000000e+00  1.4334913217124309e-01 2.3830976670549284e+00 0.0000000000000000e+00  5.7780086028923740e-02 -1.5492833365225789e+00 0.0000000000000000e+00  8.4731717030786455e-03 1.2325043618142040e+00 0.0000000000000000e+00  1.3296264462417891e-02 -1.5704325310644653e+00 0.0000000000000000e+00  -1.1556300222200763e-01 1.1490850173895468e+00 0.0000000000000000e+00  -6.6507261498164397e-02 1.4294873312903078e+00 0.0000000000000000e+00  3.0767048731852910e-02 1.6594440129030368e+00 0.0000000000000000e+00  4.0285676162749456e-01 1.5307231756317192e+00 0.0000000000000000e+00  1.0639032400814217e+00 3.0525613545250846e-01 0.0000000000000000e+00  2.3044536730032077e-02 1.0289319343657679e+00 0.0000000000000000e+00  -5.8532918153910880e-02 3.7837197414162876e-01 0.0000000000000000e+00  2.2071191159005282e-01 1.8319415403627157e+00 0.0000000000000000e+00  3.4911191657976980e-02 -1.3119634655357177e+00 0.0000000000000000e+00  2.7886882148704061e-02 7.1908479077725607e-01 0.0000000000000000e+00  8.1719967622717216e-02 1.3142191281387998e+00 0.0000000000000000e+00  1.4945546134575169e-01 -9.5627350522150684e-02 0.0000000000000000e+00  -7.1884300550240449e-02 -7.2065755945733789e-01 0.0000000000000000e+00  3.8981243654036081e-02 1.5675832898985944e+00 0.0000000000000000e+00  2.6965748601789779e-02 1.5267778887537113e+00 0.0000000000000000e+00  3.4512428917926892e-07 -1.0040654187373265e-06 0.0000000000000000e+00  -7.2053938161203285e-04 -3.3268215467982304e-04 0.0000000000000000e+00  1.0269706067104316e-01 1.5314937769967190e+00 0.0000000000000000e+00  -7.1909310581592126e-02 -1.2793515569100991e+00 0.0000000000000000e+00  4.2636753187828606e-02 1.2729585693871126e+00 0.0000000000000000e+00  -8.2633804418061382e-02 -1.2479054308366617e+00 0.0000000000000000e+00  -9.4264196819039421e-04 -8.6061585889418116e-04 0.0000000000000000e+00  -1.5508020160547559e-01 1.4679494765017551e+00 0.0000000000000000e+00  -1.1164681206114562e-02 -1.1998975951852677e+00 0.0000000000000000e+00  1.8650440767564466e-01 -1.2974128798193285e+00 0.0000000000000000e+00  3.7662332446732213e-02 -1.4065841596192112e+00 0.0000000000000000e+00  2.6070594979296376e-02 1.5536845536341621e+00 0.0000000000000000e+00  1.2905069307424525e-05 -1.4132905836086624e-05 0.0000000000000000e+00  5.8541721970324363e-04 -1.0152815677136238e-03 0.0000000000000000e+00  4.0219177639826591e-05 -2.3565087012449601e-04 0.0000000000000000e+00  -1.7347543306126253e-02 1.3749866768781291e+00 0.0000000000000000e+00  1.0661159848061957e-02 -1.1494509071114221e+00 0.0000000000000000e+00  4.2431939725454643e-01 2.3368468972204856e-01 0.0000000000000000e+00  5.0037730615859990e-02 -1.1228486610870321e+00 0.0000000000000000e+00  -2.1935744111258712e-01 -5.5955134504816628e-01 0.0000000000000000e+00  1.4205081239380674e-01 -8.6432273641270840e-01 0.0000000000000000e+00  -9.4907297903103864e-03 -1.2009891979632439e+00 0.0000000000000000e+00  -8.7644582418695516e-01 1.1024116037346101e+00 0.0000000000000000e+00  -5.5439590278102857e-01 -1.0430936131154691e+00 0.0000000000000000e+00  7.1079685914971315e-04 -6.7169992050812837e-04 0.0000000000000000e+00  5.0053799237114761e-04 -6.9280236659026353e-04 0.0000000000000000e+00  -6.8639506524301880e-04 -8.0199629791980766e-04 0.0000000000000000e+00  -1.1655591795515288e-03 -3.0996389484009109e-04 0.0000000000000000e+00  5.9807265803246657e-04 -7.7751869266089830e-04 0.0000000000000000e+00  -5.5194031687438253e-03 -8.6616376544384634e-05 0.0000000000000000e+00  1.0433298550684472e-03 -1.8551208124570223e-04 0.0000000000000000e+00  1.9805725586897363e-03 4.5432520593336774e-04 0.0000000000000000e+00  2.5638330778011797e-03 -1.0936175746052350e-03 0.0000000000000000e+00  -3.6789595838536644e-02 -1.0869311237044024e+00 0.0000000000000000e+00  6.1603873699689515e-01 -1.0217110135597099e-01 0.0000000000000000e+00  6.4730011411015184e-02 -1.1161802812198003e+00 0.0000000000000000e+00  -3.2395899938177969e-01 -3.4647852910557847e-01 0.0000000000000000e+00  5.2678187067921163e-02 -1.6081550893508347e+00 0.0000000000000000e+00  1.2905211459818611e-01 -6.2312065378176684e-01 0.0000000000000000e+00  -2.6008327431184197e-02 -3.3336478523482915e-01 0.0000000000000000e+00  -9.2852433254564895e-02 -1.5420617607927749e+00 0.0000000000000000e+00  -1.9055422552872507e-02 7.4627209808424355e-01 0.0000000000000000e+00  1.0507256827274651e-02 1.6611318617201996e+00 0.0000000000000000e+00  -1.3683799378812022e-02 4.7733088998897855e-01 0.0000000000000000e+00  1.2175447665830884e-02 9.0134732709709908e-01 0.0000000000000000e+00  2.1043647301010882e-02 -1.3598899061216834e+00 0.0000000000000000e+00  -7.0955661428692890e-02 1.4119279409789245e+00 0.0000000000000000e+00  -6.7715211317467466e-02 1.3621989800229617e+00 0.0000000000000000e+00  -2.6651914787950249e-02 1.3501955403065427e+00 0.0000000000000000e+00  3.9756075926779211e-02 -1.2648695526269993e+00 0.0000000000000000e+00  8.8000123415406112e-02 -1.3171769503433681e+00 0.0000000000000000e+00  -1.5352015805486369e-02 9.1425049714069684e-01 0.0000000000000000e+00  4.9783710718999619e-02 1.4998045966408535e+00 0.0000000000000000e+00  -4.0249820245246294e-02 -1.4479927549696567e+00 0.0000000000000000e+00  -2.0566399815772898e-01 -5.7337290761104354e-01 0.0000000000000000e+00  -1.0841181435085445e+00 5.2081011873042082e-01 0.0000000000000000e+00  -7.1956405053962458e-01 2.1090121361064951e-01 0.0000000000000000e+00  3.4062696994433178e-02 1.3340029055057063e+00 0.0000000000000000e+00  -2.0620133212473871e-01 -4.1346363806993325e-01 0.0000000000000000e+00  -2.8342784467719494e-02 -1.3361675876490877e+00 0.0000000000000000e+00  3.0200417814419300e-02 4.5313332978067866e-01 0.0000000000000000e+00  -4.2338434595322591e-02 -8.5631567990324642e-01 0.0000000000000000e+00  8.0997019195229863e-02 1.5937326802714973e+00 0.0000000000000000e+00  -3.6643126586519741e-02 -1.0933279160068878e+00 0.0000000000000000e+00  -1.5161954712829273e-01 -8.2048541460959046e-01 0.0000000000000000e+00  -2.3086566159200184e-02 -1.4390107156428154e+00 0.0000000000000000e+00  3.8662665726775160e-02 -1.2991380699751112e+00 0.0000000000000000e+00  3.4256235965563098e-02 -5.7395893254948693e-01 0.0000000000000000e+00  -9.4885883004156374e-02 2.5092948942208362e+00 0.0000000000000000e+00  5.4805489517453503e-02 -1.5299402047496883e-02 0.0000000000000000e+00  7.3927593827963975e-02 -1.4619796535657210e+00 0.0000000000000000e+00  9.7461874821465691e-03 -1.3841719156255470e+00 0.0000000000000000e+00  2.3775268763441437e-02 -1.6209450233130118e+00 0.0000000000000000e+00  -4.6941189308368686e-02 -9.3796430802217656e-01 0.0000000000000000e+00  3.4015385956964911e-01 2.1775565032116977e+00 0.0000000000000000e+00  -1.7226827960114377e-01 -4.1947625488425350e-01 0.0000000000000000e+00  -3.3744871484340040e-03 1.4989822535004920e+00 0.0000000000000000e+00  -6.5301980310356209e-02 1.5895932290125116e-02 0.0000000000000000e+00  9.9539844252327495e-02 -1.4804016599517613e+00 0.0000000000000000e+00  1.7578660185457250e-02 -1.2088255897571554e+00 0.0000000000000000e+00  3.7475090910757083e-02 -1.5888701032269654e+00 0.0000000000000000e+00  4.7133312281851504e-02 1.4624952196414724e+00 0.0000000000000000e+00  2.5186854584195639e-01 7.3454550027059773e-01 0.0000000000000000e+00  3.3961988019025341e-01 4.0434173408518576e-01 0.0000000000000000e+00  1.4499826443494632e-01 -1.4199452647752049e+00 0.0000000000000000e+00  6.8925709236746957e-02 1.8326388208692921e+00 0.0000000000000000e+00  -1.1831356306550663e-02 1.2987074394112397e+00 0.0000000000000000e+00  1.2350198141824656e-02 -1.4044728671454292e+00 0.0000000000000000e+00  3.3854613830145028e-02 1.3153084412652039e+00 0.0000000000000000e+00  -7.5201788366675459e-02 1.9343634224596464e+00 0.0000000000000000e+00  -5.3556047597421252e-01 8.2567869325072618e-01 0.0000000000000000e+00  -3.9317006162513371e-03 -7.7140974330423484e-01 0.0000000000000000e+00  7.2789283448323683e-01 -5.1202720051348460e-01 0.0000000000000000e+00  5.1089669813538130e-02 1.5929855582790997e+00 0.0000000000000000e+00  -2.1317465303435956e-01 1.2207619676038788e+00 0.0000000000000000e+00  1.3048698825603800e-02 -1.4178279489489156e+00 0.0000000000000000e+00  7.4363633613288271e-01 2.3404531966964601e+00 0.0000000000000000e+00  -1.8077888011198231e-03 4.7898888333513401e-01 0.0000000000000000e+00  9.5296494600513038e-01 1.6006536043644697e+00 0.0000000000000000e+00  1.5412877749597573e+00 -7.0184887695829345e-01 0.0000000000000000e+00  -4.5764688923487180e-04 -7.0225273739648794e-04 0.0000000000000000e+00  1.1567804858676564e-01 4.4573073681881475e-01 0.0000000000000000e+00  -6.1026973328987620e-02 -1.0112730166205790e+00 0.0000000000000000e+00  -2.8420946911249891e-02 1.5397134219189175e+00 0.0000000000000000e+00  -3.5028750941121673e-04 -6.9352780567576242e-04 0.0000000000000000e+00  4.2440827979026055e-04 -3.6124886098900014e-04 0.0000000000000000e+00  1.5817589085170655e-02 1.2771595172821120e+00 0.0000000000000000e+00  1.7500829145764055e-01 -1.1311346089602727e+00 0.0000000000000000e+00  1.6359982910606450e-03 1.5554324833545301e+00 0.0000000000000000e+00  5.9418209511856161e-02 -5.6561409890410919e-01 0.0000000000000000e+00  1.3037802875210375e-01 -7.2315960217849395e-01 0.0000000000000000e+00  3.8364587261300497e-04 1.6588158925424106e+00 0.0000000000000000e+00  5.6741135535833540e-04 -7.2585993769208070e-04 0.0000000000000000e+00  1.3218711582047873e-01 -1.3134155655663258e+00 0.0000000000000000e+00  1.2066384648930363e-01 1.3911999321203141e+00 0.0000000000000000e+00  -6.2591646449770832e-02 8.4257618210512919e-01 0.0000000000000000e+00  -1.9985859792403769e-02 1.5022059244136725e+00 0.0000000000000000e+00  1.8213553840618124e-02 9.4529998396445047e-01 0.0000000000000000e+00  5.7345490190918350e-02 -3.3027335290371562e-01 0.0000000000000000e+00  1.6841096354716579e-02 -3.2535918162537264e-01 0.0000000000000000e+00  4.2557220041316617e-02 1.0316275841405089e+00 0.0000000000000000e+00  -4.0618002177855814e-02 6.1608032149721081e-01 0.0000000000000000e+00  7.5171158339160072e-04 -8.2306794104909816e-04 0.0000000000000000e+00  -1.6060664121294477e-02 -6.8976798551209628e-01 0.0000000000000000e+00  -1.0646791529971071e-02 -1.3865424365245228e-03 0.0000000000000000e+00  -1.9628373608292842e-04 7.8592540886762051e-05 0.0000000000000000e+00  1.6487495836822363e-02 -7.5704043298746004e-01 0.0000000000000000e+00  4.6130578364857393e-02 -1.1270581560518438e+00 0.0000000000000000e+00  1.0200899265085683e-01 -1.4072746731408805e+00 0.0000000000000000e+00  4.6112296030871892e-03 -1.4297745300851530e+00 0.0000000000000000e+00  7.5231250244016015e-02 -4.0284943548766500e-01 0.0000000000000000e+00  5.3502477442085174e-02 -1.4239408128430642e+00 0.0000000000000000e+00  -3.3973460871230121e-01 -5.5552747946055338e-02 0.0000000000000000e+00  -7.4184364775848846e-02 1.3191005613327040e+00 0.0000000000000000e+00  1.7937946806857376e-02 -1.5160640328177752e+00 0.0000000000000000e+00  2.7958257768396599e-01 1.4085768250938746e+00 0.0000000000000000e+00  6.7267380513463843e-02 -1.5341424270588668e+00 0.0000000000000000e+00  -8.8984336697977973e-01 8.1788400594747102e-01 0.0000000000000000e+00  -2.7401255557711779e-02 4.8413000217663477e-01 0.0000000000000000e+00  -6.4958571923735844e-02 -1.4522209559684542e+00 0.0000000000000000e+00  -7.4956171018468215e-02 1.1071069339939352e+00 0.0000000000000000e+00  -2.6307509482905145e-01 -7.1099249514674956e-01 0.0