<?xml version="1.0"?>
<VTKFile type="UnstructuredGrid"  version="0.1"  >
<UnstructuredGrid>
<Piece  NumberOfPoints="4961" NumberOfCells="9546">
<Points>
<DataArray  type="Float64"  NumberOfComponents="3"  format="ascii">0 1.5 0  -0 0.09117947244826481 0  0.0220162612375116 0.1293127555043441 0  0.05279126660105127 0.1634918616050268 0  0.09000000000000007 0.1905255888325765 0  0.1320162612375116 0.2092324335849338 0  0.1770037380811163 0.2187948169810202 0  0.2229962619188838 0.2187948169810201 0  0.2679837387624884 0.2092324335849338 0  0.3100000000000001 0.1905255888325765 0  0.3472087333989489 0.1634918616050267 0  0.3779837387624885 0.1293127555043441 0  0.4009800006813722 0.08948206147667603 0  0.4052662851173224 0.07629023443250138 0  0.4200599930048062 0.1082663100071745 0  0.4475409466961425 0.1444168863592189 0  0.4821507162738997 0.173814689612947 0  0.522270987378618 0.1950851111615262 0  0.5660257807239194 0.2072335697337205 0  0.6113691708029376 0.209692016908736 0  0.6561809510911363 0.2023454984290368 0  0.6983657725469559 0.1855375293336648 0  0.7359511198041838 0.1600540315768036 0  0.7671795437981852 0.1270865851906907 0  0.7895690044779959 0.089875012069959 0  0.7989002782867461 0.1116194513821486 0  0.825485631780658 0.1498156710261111 0  0.8592156240140376 0.1818784194956707 0  0.8987093451417441 0.2064950441012706 0  0.9423499175804944 0.222657737339227 0  0.9883506911670961 0.2297047966493422 0  1.034828388826053 0.2273477145954656 0  1.079880208154309 0.2156829903938285 0  1.121661722375201 0.1951881792237927 0  1.158462391387408 0.1667023410626976 0  1.188775591477674 0.1313916894718022 0  1.211360296672653 0.09070184667606328 0  1.225291886488074 0.04629865962039181 0  1.23 0 0  1.38 0 0  1.384807527838563 0.04574057197990705 0  1.399019999318628 0.08948206147667601 0  1.422016261237512 0.1293127555043441 0  1.452791266601051 0.1634918616050268 0  1.49 0.1905255888325765 0  1.532016261237512 0.2092324335849338 0  1.577003738081116 0.2187948169810202 0  1.622996261918884 0.2187948169810201 0  1.667983738762489 0.2092324335849338 0  1.71 0.1905255888325765 0  1.747208733398949 0.1634918616050267 0  1.763158635297163 0.1457777009465727 0  1.8 0.1732050807568878 0  1.842639353457782 0.1915979024630978 0  1.888371034217905 0.1996616316542537 0  1.934729635533386 0.1969615506024416 0  1.979215953207831 0.1836432213760548 0  2.019431718340557 0.1604246385510087 0  2.053208888623796 0.1285575219373079 0  2.078726528064682 0.08975983604009244 0  2.089496128668151 0.06017060156551748 0  2.099019999318628 0.08948206147667601 0  2.122016261237512 0.1293127555043441 0  2.152791266601051 0.1634918616050268 0  2.19 0.1905255888325765 0  2.232016261237511 0.2092324335849338 0  2.277003738081116 0.2187948169810202 0  2.322996261918884 0.2187948169810201 0  2.367983738762488 0.2092324335849338 0  2.41 0.1905255888325765 0  2.447208733398949 0.1634918616050267 0  2.457084733682728 0.1525234520934048 0  2.4821507162739 0.173814689612947 0  2.522270987378618 0.1950851111615262 0  2.56602578072392 0.2072335697337205 0  2.611369170802938 0.209692016908736 0  2.656180951091136 0.2023454984290368 0  2.698365772546956 0.1855375293336648 0  2.735951119804184 0.1600540315768036 0  2.767179543798185 0.1270865851906907 0  2.790590838130901 0.08817671132765556 0  2.805090316699118 0.04514379244431505 0  2.81 0 0  3 0 0  3 1.5 0  0 0.7956998320486358 0  0.4110904441558352 0.08887894789033324 0  0.7773699356874649 0.1101500221202465 0  1.5 1.5 0  3 0.75 0  0 0.4434396522484503 0  3 0.375 0  0 0.2673095623483576 0  0 0.1792445173983112 0  0 0.135211994923288 0  2.25 1.5 0  0.75 1.5 0  1.807676614587897 0.8837271123414687 0  1.04553857344641 0.8979441530181422 0  2.403437242208115 0.8132876225209357 0  0.5070864579510219 1.00719278150819 0  3 1.125 0  1.338035405010484 0.5883821138073757 0  2.625 1.5 0  0.3818338799394321 0.6099209340690734 0  2.067950237167102 0.5767429460037152 0  1.428016626639016 0.9663701540160734 0  1.875 1.5 0  2.136976695697423 1.114248364898298 0  1.125 1.5 0  0.375 1.5 0  0.7837785056474272 0.5924157926009261 0  2.621900904970652 1.121900904970652 0  0 1.147849916024318 0  1.717071692555337 0.550779009763445 0  1.678619011272733 1.204235418149387 0  0.8184015011321764 1.160011833453945 0  2.690771901920515 0.5625 0  1.191553529739931 1.18494431212041 0  2.361743998733192 0.516240498397431 0  2.727335050325185 0.8509414958930873 0  1.061120194703906 0.6196995992969355 0  0.269244960297408 0.8637990218922467 0  0.7609530458041533 0.8768664729047809 0  0.5625 1.286150286226427 0  0.2788879438654684 1.226607136693913 0  2.077535333020466 0.8486969269297693 0  2.4375 1.312474598220077 0  2.809426100237187 1.309426100237187 0  1.544358239139601 0.7389704993474611 0  1.434454912167138 1.210530519498476 0  2.380335199591509 1.061271835208851 0  1.926191456889599 1.252931474193008 0  0.5486378118088926 0.7757115443742588 0  0.5753328044103648 0.454959652232189 0  1.281333603460298 0.3634530521588742 0  0.9959109141311655 1.308173392725312 0  1.507364216928931 0.4358170942512657 0  1.21812632380771 0.7680504611018459 0  0 0.6195697421485431 0  1.3125 1.5 0  0.2892140007400885 0.4197188740688536 0  1.924109453869066 0.4139433366638808 0  0.9329747065756857 0.4375180073994652 0  2.243231692495831 0.684324343130167 0  2.0625 1.5 0  2.124178136191116 0.3821183579116478 0  1.923364695744858 0.7179848099571996 0  2.233034933769442 1.295537230099697 0  1.961794510294921 1.014032929092127 0  0.9133498533613748 0.7509830595402348 0  0 0.9717748740364769 0  0.1875 1.5 0  0 1.323924958012159 0  1.227107007305785 0.9862124750220198 0  1.616617139708145 0.9194004298184476 0  2.811636610329211 1.039737091854792 0  0.1901803394569171 0.5855957240372172 0  2.511165533602297 0.6467174115519351 0  2.536466024168012 0.9507486861843897 0  0.1866521719860137 1.047526440960541 0  2.74946330463778 0.3751246081287475 0  2.543804048982231 0.4145708923164018 0  0.9375 1.5 0  2.4375 1.5 0  0.5625 1.5 0  3 0.5625 0  1.6875 1.5 0  3 0.1875 0  3 0.9375 0  3 1.3125 0  2.8125 1.5 0  1.010044310702206 1.096645863828023 0  2.623488142128434 1.314011651358178 0  2.229558763998408 0.9540962470011799 0  2.845385950960257 0.65625 0  0.7525337220569124 0.4130199536593896 0  1.10537722367743 0.3921278680533664 0  0.6842290971134891 1.039833940778862 0  0.7386374643770518 1.32083913541365 0  1.553387564684306 1.08522930563603 0  1.788789291239656 1.06235950910253 0  1.559809215736361 1.334301807720895 0  1.750410104758408 0.7205088288478614 0  1.672011031024921 0.3842266692686779 0  1.77867146649739 1.349246747510312 0  1.21875 1.355246746101045 0  0.8723426006985372 1.001666865795386 0  1.380631426145093 0.7466576340788873 0  0.4259246536592668 0.3283409344703117 0  0.3444360723462823 1.008028502358495 0  0.6161474109915657 0.6198433096250735 0  0.4265019066463465 1.151756411601508 0  1.403034104827827 1.367717620859348 0  2.874684993382777 0.28125 0  2.874778249279309 0.46875 0  2.071314369495706 1.334001876948522 0  2.3 0.3730371416193449 0  1.322682484320052 1.105857305698365 0  1.563127563616163 0.5828461597844022 0  2.559040610931566 0.7958017532902765 0  1.213306121383676 0.5002133671656324 0  1.916121887065227 0.5659454196943852 0  2.207677378621353 0.5116761937353096 0  0.1257028237453774 1.235887437018238 0  0.7203062975228639 0.7304636720840537 0  0.3921145397364951 0.7663844669080319 0  2.70905347612285 0.7067207479465436 0  2.87968965213058 0.84375 0  0.1396742765227637 0.3714373577111671 0  0.1209675020841686 0.8837373530425563 0  0.1396318055029159 0.7309656161457982 0  0.4039274761094683 1.336239793581983 0  2.676470777350768 0.9877614171414461 0  0.2098223519481562 1.355491059017463 0  0.6161949108813681 0.9073080762684851 0  0.6728981805985057 1.187471545812503 0  0.4313243650936899 0.473428383024358 0  1.317579957488075 0.8752219089473544 0  1.05247475519209 0.7587740171666131 0  0.9218858728134471 0.6117854803862035 0  2.343741823603972 1.201704901656183 0  2.483180588903391 1.163054990844907 0  1.336494261441537 0.237261632693729 0  2.096334636915305 0.983917300563715 0  2.059942810014369 0.7131710752499992 0  1.940957218750955 0.8535106616369695 0  0.2735884026449029 0.6956028768230409 0  2.3791553829517 0.6794620539851567 0  2.443566922502795 0.3224565874575337 0  2.21140571429892 0.8179437442036444 0  2.863880028189143 1.175018869261394 0  1.212122991296861 0.6341965806889284 0  0.8702381850023826 1.37471255674248 0  0.4252003220264352 0.89843828480276 0  2.714126143737636 1.217200861470203 0  2.34375 1.406237299110039 0  2.71875 1.406237608026668 0  2.903224894283775 1.403224894283775 0  2.53125 1.5 0  1.444637821860123 0.3169971434781329 0  1.307097209138961 1.253815337580837 0  1.806074818262501 0.3310941379078186 0  0.09375 1.5 0  1.96875 1.5 0  1.467196512253796 0.8429542418758076 0  0.7811182225539175 0.2860230046382459 0  0.8880470276332622 0.8755399020562793 0  2.004554624687214 1.142507703833496 0  1.901808674873915 1.376717053991818 0  1.80956117606876 1.192202387775541 0  0.65625 1.5 0  2.256163989601168 1.076312782066936 0  2.35728348455407 0.9340561611988477 0  0.5508073343087652 1.161974855816299 0  1.822201850254356 0.484799098822588 0  0.6415475671733072 0.3394071993736185 0  0.6854011703162045 0.5171310296285601 0  2.010601404748645 0.3128962050875828 0  1.458109478391155 0.6494112449225909 0  1.556659288882675 1.21212759481645 0  2.15625 1.5 0  1.102952541966123 1.010721102324488 0  3 0.09375 0  2.905 0 0  1.698833571793874 0.8302602504158462 0  0.1128136071602732 0.4908067814983783 0  1.375215724596343 0.4593979824254396 0  1.667188501011557 1.033651962891267 0  0.5152717989473731 0.5573202673988191 0  0.4756630816937197 0.6823252715484635 0  2.485944291803511 0.5248037876852512 0  0.609375 1.393075143113214 0  1.657554629504312 0.6506084627130724 0  1.180547956106694 0.2992004577305749 0  1.040994897946075 0.4976964206623483 0  2.883588023402782 0.1625217501240843 0  1.437965738677728 1.09476840787
[...]
<PointData  Vectors="f_60"> 
<DataArray  type="Float64"  Name="f_60"  NumberOfComponents="3" format="ascii">4.9813984929944663e-05 -3.5621008200097142e-04 0.0000000000000000e+00  -2.5628684035155044e-04 3.1217112907368157e-04 0.0000000000000000e+00  -1.8500158828046038e-05 1.9885189662852663e-04 0.0000000000000000e+00  3.0512051214935535e-04 7.1867069741367149e-05 0.0000000000000000e+00  1.0929374483307732e-04 1.6547369464324865e-04 0.0000000000000000e+00  -2.5657806577489772e-04 3.8513669845637136e-04 0.0000000000000000e+00  2.4138782982329474e-04 4.9074340611560802e-04 0.0000000000000000e+00  8.2321604994463855e-05 1.2999141434525164e-04 0.0000000000000000e+00  -1.3896589869885254e-05 4.7477600315193483e-05 0.0000000000000000e+00  1.3051549700488426e-04 -3.4483643549612236e-05 0.0000000000000000e+00  -2.9035593701719957e-04 3.6729514349440311e-04 0.0000000000000000e+00  -2.2098429826485626e-05 4.4217702936580848e-04 0.0000000000000000e+00  1.7117989990243269e-04 1.6853633024422658e-04 0.0000000000000000e+00  -9.2971656641216974e-05 8.7664040629939252e-05 0.0000000000000000e+00  6.3186001907823835e-05 2.3408014914429312e-04 0.0000000000000000e+00  -2.6591242179757398e-05 2.6958234511728087e-04 0.0000000000000000e+00  -3.3877935173779616e-05 4.0843265073083399e-04 0.0000000000000000e+00  3.4445036867128583e-04 4.1194443430730889e-04 0.0000000000000000e+00  1.0734833496467326e-04 2.0263482442126456e-04 0.0000000000000000e+00  6.0549065073826975e-05 1.1917677836877528e-04 0.0000000000000000e+00  -1.6622780868703801e-04 1.8888606076944450e-04 0.0000000000000000e+00  -1.3320191627895904e-04 4.6077978136321721e-04 0.0000000000000000e+00  7.6625257490158826e-05 3.7518261186686073e-04 0.0000000000000000e+00  4.4848083972112529e-05 2.8173766805470661e-04 0.0000000000000000e+00  -2.7134841327575485e-04 2.5605905650091316e-04 0.0000000000000000e+00  -2.1198189932044277e-04 3.2640773207301714e-04 0.0000000000000000e+00  1.7706996600913116e-04 4.8503825049134558e-04 0.0000000000000000e+00  3.4709277121740392e-04 3.5955500774857859e-04 0.0000000000000000e+00  -9.6448945743215345e-05 -1.2387546969270710e-05 0.0000000000000000e+00  6.9630465878520653e-05 1.6552636540891451e-04 0.0000000000000000e+00  -2.1110775214074775e-04 2.7879720743194825e-04 0.0000000000000000e+00  -2.8199631307175829e-05 4.7936187438943464e-04 0.0000000000000000e+00  3.7306854147198476e-04 1.8900678646696002e-04 0.0000000000000000e+00  -2.4979713741478464e-06 1.2452856359879204e-04 0.0000000000000000e+00  -4.2986491085665207e-05 -8.0726022340001620e-05 0.0000000000000000e+00  -5.0146320751468962e-05 -8.5632967471612232e-05 0.0000000000000000e+00  -1.2543961210980181e-04 2.7002154945380186e-04 0.0000000000000000e+00  1.1162053045559737e-04 6.5051561798876547e-04 0.0000000000000000e+00  4.2228441288516268e-04 2.3836838596151080e-04 0.0000000000000000e+00  1.4050913832477783e-04 1.8406273271498284e-04 0.0000000000000000e+00  -9.5640477959153605e-05 2.1477507482924317e-04 0.0000000000000000e+00  -1.3456523197077314e-04 2.1251438220708165e-04 0.0000000000000000e+00  -8.2287053754753978e-05 3.4630788673340856e-04 0.0000000000000000e+00  1.4501775553624047e-04 2.9552206889779778e-04 0.0000000000000000e+00  4.7287718354103432e-05 1.4644360776622228e-04 0.0000000000000000e+00  2.4473908034529364e-05 1.4622081129845812e-04 0.0000000000000000e+00  -1.7560452254081945e-04 2.7279521726340881e-04 0.0000000000000000e+00  -1.2707940837607121e-04 4.0068367415601675e-04 0.0000000000000000e+00  3.2359530906644180e-04 2.6123678976731657e-04 0.0000000000000000e+00  2.9149085893095966e-04 9.5230075931998205e-05 0.0000000000000000e+00  -1.7977181166688524e-04 2.9427666524207470e-04 0.0000000000000000e+00  -3.7379165804158569e-04 3.0775119795987748e-04 0.0000000000000000e+00  -6.7210185432925473e-05 1.0712117791651032e-04 0.0000000000000000e+00  8.6058225946086705e-05 8.0999205120890828e-05 0.0000000000000000e+00  -2.3931533063634589e-04 2.8260974918646695e-04 0.0000000000000000e+00  1.1148968224413784e-04 5.2503465711940768e-04 0.0000000000000000e+00  4.2480750554427888e-04 1.7249363047097875e-04 0.0000000000000000e+00  -3.3020426568369439e-05 8.6018708732667527e-05 0.0000000000000000e+00  -1.5109970557131695e-04 -2.5396956258526274e-05 0.0000000000000000e+00  -1.8143797751969982e-04 -1.5821556328751821e-04 0.0000000000000000e+00  -1.2229892222799293e-04 -2.9407552041975691e-04 0.0000000000000000e+00  -1.5314785598857607e-04 -2.3407315939545615e-04 0.0000000000000000e+00  -6.7363932942289474e-05 3.4458669377619092e-06 0.0000000000000000e+00  2.2462378390010644e-04 9.0388420729694847e-05 0.0000000000000000e+00  8.5892271553636027e-06 6.5125760898669753e-05 0.0000000000000000e+00  -3.3811967102491684e-04 2.2339053018955891e-04 0.0000000000000000e+00  2.0577301858900368e-04 3.9458087070989856e-04 0.0000000000000000e+00  2.8011597918585669e-04 3.4072908155959318e-04 0.0000000000000000e+00  -1.8952740073358378e-05 1.4793908618957593e-06 0.0000000000000000e+00  -3.3767189569885827e-06 8.3907445889038970e-05 0.0000000000000000e+00  3.2344033949428434e-04 2.5625389503366899e-04 0.0000000000000000e+00  6.3519132850288072e-04 1.5971916559192638e-04 0.0000000000000000e+00  3.7270764008281814e-04 1.6078402099810999e-04 0.0000000000000000e+00  6.2518382650296757e-05 2.4585199066626772e-04 0.0000000000000000e+00  9.6390821848386577e-05 2.9554578626871922e-04 0.0000000000000000e+00  2.2661240017570348e-04 6.4987008327400076e-06 0.0000000000000000e+00  1.7071283379861460e-04 -1.3855995944066265e-04 0.0000000000000000e+00  8.3880547092194982e-05 -4.8597830587112577e-04 0.0000000000000000e+00  -3.9611078391546550e-04 -1.5742690730980986e-04 0.0000000000000000e+00  -4.4848139221512169e-04 1.3039834539861541e-04 0.0000000000000000e+00  9.9321081077501517e-05 1.3365958002568607e-04 0.0000000000000000e+00  3.1284521723261863e-04 -9.9380340300125468e-05 0.0000000000000000e+00  2.7536187457120599e-04 -6.8242575768115221e-05 0.0000000000000000e+00  -9.0011906497584893e-03 -3.4734820204222784e-03 0.0000000000000000e+00  2.9868344726899669e-03 1.8877609020369009e-04 0.0000000000000000e+00  -1.6611913170877220e-05 2.4128241563717553e-05 0.0000000000000000e+00  -2.0028510289492728e-05 -7.4237015080934888e-05 0.0000000000000000e+00  -2.6657771876671124e-04 2.1024399717963947e-04 0.0000000000000000e+00  1.8561825119089840e-06 -5.1618770086623255e-04 0.0000000000000000e+00  1.7484527044597250e-04 -1.0824431323110120e-04 0.0000000000000000e+00  1.0436486088954589e-05 4.6082603673233380e-05 0.0000000000000000e+00  -4.8246951303036495e-04 -4.1627173645651987e-06 0.0000000000000000e+00  1.4417627604667777e-04 3.3235759927000756e-04 0.0000000000000000e+00  2.2927373027375041e-04 1.9628168670462567e-04 0.0000000000000000e+00  -2.9838616345292615e-05 5.3610829428531615e-04 0.0000000000000000e+00  -2.8838371910472258e-05 -1.0960830164178662e-04 0.0000000000000000e+00  4.9850219282183610e-05 3.7078376773014744e-05 0.0000000000000000e+00  3.9668237245081006e-03 4.7552134950612762e-01 0.0000000000000000e+00  1.6614626573364614e-03 -4.4116716652874821e-01 0.0000000000000000e+00  3.7113394197884680e-03 5.8908906210905609e-01 0.0000000000000000e+00  -3.9692417147305778e-03 -1.7087896889064660e-01 0.0000000000000000e+00  9.6660054453381070e-04 -1.0273431778865561e-05 0.0000000000000000e+00  1.7141408457490404e-02 -4.2657507730536215e-01 0.0000000000000000e+00  -5.4395185131842036e-04 -2.2736268454561794e-04 0.0000000000000000e+00  1.6065068611187613e-02 -7.1884521034922474e-02 0.0000000000000000e+00  -1.9412337463716518e-02 4.0588990962102006e-01 0.0000000000000000e+00  -4.4500436453199810e-04 3.9167861195149992e-02 0.0000000000000000e+00  2.9405970174412852e-04 -2.5302448515061919e-04 0.0000000000000000e+00  2.8985413303838668e-02 3.8135769480539877e-01 0.0000000000000000e+00  -2.2924368535920205e-04 -2.5009180980320217e-04 0.0000000000000000e+00  2.6161789337396743e-04 -2.8753504009070669e-04 0.0000000000000000e+00  1.3286716144402078e-02 -3.4285117319547831e-01 0.0000000000000000e+00  1.2624437592864676e-01 1.5218928088344202e-01 0.0000000000000000e+00  -4.9299483456128736e-06 3.1737357646572254e-05 0.0000000000000000e+00  9.0474206126879380e-04 -5.4687588042079856e-02 0.0000000000000000e+00  -5.9729179081315286e-03 -3.5257109248177387e-01 0.0000000000000000e+00  -1.6628053910906129e-02 -6.1835997709532860e-02 0.0000000000000000e+00  -1.0932308746665333e-01 6.9095835358041180e-01 0.0000000000000000e+00  -1.6592576975273741e-02 4.4308599724298536e-01 0.0000000000000000e+00  -6.3812812606887190e-02 4.1489643397395476e-01 0.0000000000000000e+00  2.7577170997558333e-02 6.5815437929899911e-01 0.0000000000000000e+00  1.5339791665849083e-02 -4.2869680356532819e-01 0.0000000000000000e+00  3.5601610016904716e-03 3.4271200706448657e-01 0.0000000000000000e+00  2.3492989375879956e-03 -4.3748280293432923e-01 0.0000000000000000e+00  -2.8126117794286684e-02 3.0902921817670598e-01 0.0000000000000000e+00  -1.4658184392949785e-02 3.9289354707278479e-01 0.0000000000000000e+00  5.5167290500728692e-03 4.6491506371888514e-01 0.0000000000000000e+00  1.1278440276966230e-01 3.8166347793668803e-01 0.0000000000000000e+00  3.0743608325352234e-01 -6.3822099240527536e-02 0.0000000000000000e+00  6.2124863044295325e-03 2.8401986576542687e-01 0.0000000000000000e+00  -1.5329841451579791e-02 9.5564359166337015e-02 0.0000000000000000e+00  5.6835760136457088e-02 5.2514712382429052e-01 0.0000000000000000e+00  1.0103616265293949e-02 -3.6456458819882503e-01 0.0000000000000000e+00  7.9953972917245295e-03 2.0436567584803830e-01 0.0000000000000000e+00  2.1687016047096025e-02 3.7433199038086468e-01 0.0000000000000000e+00  3.9229989033038509e-02 -5.9406201900633795e-02 0.0000000000000000e+00  -2.0036416097301890e-02 -1.8548671388287735e-01 0.0000000000000000e+00  6.9380285932347319e-03 4.3928106522696841e-01 0.0000000000000000e+00  8.9976200714784894e-03 4.2206504827880947e-01 0.0000000000000000e+00  -3.6944418405062393e-06 1.6253487264223919e-05 0.0000000000000000e+00  -1.1721977770797262e-04 -4.9623574469711039e-06 0.0000000000000000e+00  2.8379405356846573e-02 4.2735095202696777e-01 0.0000000000000000e+00  -1.9759517291789520e-02 -3.5387470036234020e-01 0.0000000000000000e+00  1.0864376324180917e-02 3.4922632694933736e-01 0.0000000000000000e+00  -1.8907827049728675e-02 -3.4630909735085319e-01 0.0000000000000000e+00  -4.2620239181099070e-04 -4.2330285838080575e-04 0.0000000000000000e+00  -4.6010385139980715e-02 4.2762584092231487e-01 0.0000000000000000e+00  -2.1135668948199333e-03 -3.3307757332016930e-01 0.0000000000000000e+00  5.4341309295418597e-02 -3.6633999756685814e-01 0.0000000000000000e+00  1.1542073222783807e-02 -3.8750386849021545e-01 0.0000000000000000e+00  8.3079787071897119e-03 4.3074730224824487e-01 0.0000000000000000e+00  2.4122738346794763e-05 2.4057340097541496e-05 0.0000000000000000e+00  4.7577896657792864e-05 -1.7308651402211017e-04 0.0000000000000000e+00  2.2526781793148326e-06 7.0861431272006850e-06 0.0000000000000000e+00  -2.9799218527561144e-03 3.8350441002554531e-01 0.0000000000000000e+00  2.4671955980904857e-03 -3.2036297052318391e-01 0.0000000000000000e+00  1.2655026536486558e-01 8.1529543437914888e-03 0.0000000000000000e+00  1.2106096791708950e-02 -3.0760348046455949e-01 0.0000000000000000e+00  -5.2500367721290950e-02 -1.3075855889795424e-01 0.0000000000000000e+00  4.9235709611792612e-02 -2.4395641633650006e-01 0.0000000000000000e+00  -2.7632545522028110e-03 -3.3857644611787430e-01 0.0000000000000000e+00  -2.3965904722650294e-01 4.6895767092600477e-01 0.0000000000000000e+00  -1.4527328706234846e-01 -3.0042449676995503e-01 0.0000000000000000e+00  4.5757775696399412e-04 -4.0327665130282173e-04 0.0000000000000000e+00  4.1979925437111651e-04 -4.7031720799782869e-04 0.0000000000000000e+00  -4.4715625797433014e-04 -3.6274525454043862e-04 0.0000000000000000e+00  -3.1258495289690643e-04 -4.3446128321184526e-05 0.0000000000000000e+00  4.4128893597064083e-05 -1.1253620250596112e-04 0.0000000000000000e+00  -1.3230124796603988e-03 4.3982593490359607e-05 0.0000000000000000e+00  4.2933094527109942e-04 -9.3618173097702293e-05 0.0000000000000000e+00  1.6050114822404704e-03 6.7720031799929886e-05 0.0000000000000000e+00  1.9664532124838197e-04 -1.2045364641667253e-04 0.0000000000000000e+00  -1.1090310589192695e-02 -2.9702819349064452e-01 0.0000000000000000e+00  1.7524615633091126e-01 8.9222572355959748e-02 0.0000000000000000e+00  2.2193699790996300e-02 -3.1258612942680131e-01 0.0000000000000000e+00  -7.2858252737047713e-02 -9.6382985141826444e-02 0.0000000000000000e+00  1.3725495224743776e-02 -4.4910516484594309e-01 0.0000000000000000e+00  3.4460043823986167e-02 -1.5563695171096695e-01 0.0000000000000000e+00  -7.1391946936332365e-03 -8.8598974029806501e-02 0.0000000000000000e+00  -2.6256407743302283e-02 -4.2415659007617551e-01 0.0000000000000000e+00  -4.0068289910909667e-03 2.1080084905488131e-01 0.0000000000000000e+00  3.6222411106573136e-03 4.6226951335809024e-01 0.0000000000000000e+00  -4.5644208349521417e-03 1.4279317978158032e-01 0.0000000000000000e+00  2.1187837685785436e-03 2.5377675575242464e-01 0.0000000000000000e+00  4.6404539214645428e-03 -3.7933706912366366e-01 0.0000000000000000e+00  -1.5952819988516793e-02 3.9558828758839598e-01 0.0000000000000000e+00  -1.8891328037785621e-02 3.9158015748187941e-01 0.0000000000000000e+00  -5.2901533189881784e-03 3.7335331297202129e-01 0.0000000000000000e+00  9.0628432637227078e-03 -3.4890698297836403e-01 0.0000000000000000e+00  2.3490472032507849e-02 -3.8284624852904731e-01 0.0000000000000000e+00  -2.8976748516443044e-03 2.5528662535243618e-01 0.0000000000000000e+00  1.4325807126967570e-02 4.1455519381384442e-01 0.0000000000000000e+00  -1.1964191480036041e-02 -4.0076967438889516e-01 0.0000000000000000e+00  -5.4881483899737467e-02 -1.7770824830759271e-01 0.0000000000000000e+00  -3.1761359377462028e-01 -9.1483301408050877e-03 0.0000000000000000e+00  -1.8676198435483118e-01 -2.5341958983570129e-02 0.0000000000000000e+00  1.4235582919548512e-02 3.7979209690725640e-01 0.0000000000000000e+00  -6.1194707557493989e-02 -1.5358882204822985e-01 0.0000000000000000e+00  -9.0475087254238747e-03 -3.6803064993619650e-01 0.0000000000000000e+00  7.0113103153229108e-03 1.2282653043693480e-01 0.0000000000000000e+00  -1.2509720756767677e-03 -2.3540889922967781e-01 0.0000000000000000e+00  2.6038694929058130e-02 4.3643020664391291e-01 0.0000000000000000e+00  -9.5495109468976998e-03 -3.0147097495016567e-01 0.0000000000000000e+00  -4.0501110383473093e-02 -2.0990978988449779e-01 0.0000000000000000e+00  -7.4860504544899380e-03 -4.0205974310614589e-01 0.0000000000000000e+00  9.2347335837260364e-03 -3.6592891791829363e-01 0.0000000000000000e+00  8.5551276347755594e-03 -1.6672847024753523e-01 0.0000000000000000e+00  -3.9613709057839425e-02 7.0975830275352803e-01 0.0000000000000000e+00  2.9604166240654334e-02 4.7578112564927401e-03 0.0000000000000000e+00  1.7475495626599547e-02 -4.1696844461007138e-01 0.0000000000000000e+00  2.0149115957316241e-03 -3.8757125272425152e-01 0.0000000000000000e+00  5.3639323935110597e-03 -4.5304764967441313e-01 0.0000000000000000e+00  -1.0911510708164051e-02 -2.5087720071774167e-01 0.0000000000000000e+00  8.2741882922863524e-02 6.3490737604533909e-01 0.0000000000000000e+00  -4.5245949359825371e-02 -1.3457492896080347e-01 0.0000000000000000e+00  8.5363864677906616e-04 4.1640833810569994e-01 0.0000000000000000e+00  -1.6998445273356012e-02 1.6412665282722352e-02 0.0000000000000000e+00  2.4050808704352684e-02 -4.2072855165983680e-01 0.0000000000000000e+00  3.6034999242672947e-03 -3.3830137945442634e-01 0.0000000000000000e+00  9.0497062088818608e-03 -4.4201795377268355e-01 0.0000000000000000e+00  1.3005201990643908e-02 4.0332396976498003e-01 0.0000000000000000e+00  7.0150835238677448e-02 2.4720081424354096e-01 0.0000000000000000e+00  9.7281738519726296e-02 5.3981678042623854e-02 0.0000000000000000e+00  4.4969706633636024e-02 -4.1135379664498045e-01 0.0000000000000000e+00  1.7075007364522138e-02 5.1160067503325835e-01 0.0000000000000000e+00  -6.4524616592319430e-03 3.6063687427221514e-01 0.0000000000000000e+00  4.4775455870322460e-03 -3.9024427595620986e-01 0.0000000000000000e+00  1.0181472432725151e-02 3.6774673294926452e-01 0.0000000000000000e+00  -2.8541010376630465e-02 5.3664204140476024e-01 0.0000000000000000e+00  -1.5187377921655620e-01 3.0581038445919168e-01 0.0000000000000000e+00  2.4333322995216786e-03 -2.1367648588264596e-01 0.0000000000000000e+00  2.2190169926146525e-01 -1.1467799001818980e-01 0.0000000000000000e+00  1.6290434200627556e-02 4.3945524895070603e-01 0.0000000000000000e+00  -5.4306471165932117e-02 3.3378061010561499e-01 0.0000000000000000e+00  2.2455053542869987e-03 -3.9703377818813185e-01 0.0000000000000000e+00  1.9765575803616897e-01 6.3181833695314449e-01 0.0000000000000000e+00  1.7445535366173267e-02 1.6606321778179323e-01 0.0000000000000000e+00  2.9385674430155484e-01 4.3405798081226438e-01 0.0000000000000000e+00  4.3411960647681658e-01 3.6321069715402575e-02 0.0000000000000000e+00  -1.0379333915765505e-04 -5.8479269114879605e-05 0.0000000000000000e+00  3.4561987716793079e-02 1.3662999257709110e-01 0.0000000000000000e+00  -1.7729489179183940e-02 -2.7106314789866565e-01 0.0000000000000000e+00  -8.0517561132932725e-03 4.2912962325256993e-01 0.0000000000000000e+00  -1.0575738204247929e-05 -1.6938030785409116e-04 0.0000000000000000e+00  5.0713893856421796e-05 -2.3587265321274231e-05 0.0000000000000000e+00  4.4469471088734976e-03 3.5790726271450668e-01 0.0000000000000000e+00  4.2161138077293506e-02 -3.1505569145706469e-01 0.0000000000000000e+00  2.2610918392985814e-03 4.3283864123913873e-01 0.0000000000000000e+00  1.7004109600269636e-02 -1.4623489419597252e-01 0.0000000000000000e+00  3.5534017492827766e-02 -2.0755191812788445e-01 0.0000000000000000e+00  2.0829645473969768e-03 4.6041126561101919e-01 0.0000000000000000e+00  3.2296071579458334e-04 -2.7774639746003639e-04 0.0000000000000000e+00  4.1188315380966900e-02 -3.5680417736223935e-01 0.0000000000000000e+00  2.9259525458704989e-02 4.0202018593731037e-01 0.0000000000000000e+00  -1.4949053845238130e-02 2.2508708104278072e-01 0.0000000000000000e+00  -6.5307838679926162e-03 4.2262333744845609e-01 0.0000000000000000e+00  3.0308688554992361e-03 2.5791697324913926e-01 0.0000000000000000e+00  1.5429498432949147e-02 -1.0270624343444601e-01 0.0000000000000000e+00  -2.8878077346352856e-04 -1.0385704336720521e-01 0.0000000000000000e+00  1.0135982264577254e-02 2.9388282016473377e-01 0.0000000000000000e+00  -9.7805007669578177e-03 1.7869206386242520e-01 0.0000000000000000e+00  4.1135961576842879e-04 -2.7889693456245129e-04 0.0000000000000000e+00  -4.8863942912296737e-03 -1.9555232273887491e-01 0.0000000000000000e+00  -3.1206844432136336e-03 -1.3318327568981609e-03 0.0000000000000000e+00  8.9331088499975742e-05 -5.6640929203418257e-05 0.0000000000000000e+00  3.9706955860660271e-03 -2.0806452386977950e-01 0.0000000000000000e+00  9.8989755861414574e-03 -3.2112662443034068e-01 0.0000000000000000e+00  2.3490586139999135e-02 -3.8829082121913655e-01 0.0000000000000000e+00  6.1144512706917317e-04 -3.9672350806702927e-01 0.0000000000000000e+00  1.8734736576996935e-02 -1.0054646652931215e-01 0.0000000000000000e+00  1.2655419638974154e-02 -3.9305863322311713e-01 0.0000000000000000e+00  -8.8996259898319843e-02 4.1993680164116746e-02 0.0000000000000000e+00  -2.3680787008041923e-02 3.8115492937034667e-01 0.0000000000000000e+00  3.8488854238174280e-03 -4.2154860000739941e-01 0.0000000000000000e+00  7.0985750695176222e-02 4.0240565013286822e-01 0.0000000000000000e+00  1.8233174734710887e-02 -4.2773510367275852e-01 0.0000000000000000e+00  -3.4387197216715659e-01 9.1904747521724353e-02 0.0000000000000000e+00  -7.0948886225169153e-03 1.2990658325136478e-01 0.0000000000000000e+00  -1.9363518368921650e-02 -4.0954549291664077e-01 0.0000000000000000e+00  -1.8508232839188503e-02 3.1725795586822242e-01 0.0000000000000000e+00  -6.9378633192044653e-02 -2.2193775635510393e-01 0.00