<?xml version="1.0"?>
<VTKFile type="UnstructuredGrid"  version="0.1"  >
<UnstructuredGrid>
<Piece  NumberOfPoints="4961" NumberOfCells="9546">
<Points>
<DataArray  type="Float64"  NumberOfComponents="3"  format="ascii">0 1.5 0  -0 0.09117947244826481 0  0.0220162612375116 0.1293127555043441 0  0.05279126660105127 0.1634918616050268 0  0.09000000000000007 0.1905255888325765 0  0.1320162612375116 0.2092324335849338 0  0.1770037380811163 0.2187948169810202 0  0.2229962619188838 0.2187948169810201 0  0.2679837387624884 0.2092324335849338 0  0.3100000000000001 0.1905255888325765 0  0.3472087333989489 0.1634918616050267 0  0.3779837387624885 0.1293127555043441 0  0.4009800006813722 0.08948206147667603 0  0.4052662851173224 0.07629023443250138 0  0.4200599930048062 0.1082663100071745 0  0.4475409466961425 0.1444168863592189 0  0.4821507162738997 0.173814689612947 0  0.522270987378618 0.1950851111615262 0  0.5660257807239194 0.2072335697337205 0  0.6113691708029376 0.209692016908736 0  0.6561809510911363 0.2023454984290368 0  0.6983657725469559 0.1855375293336648 0  0.7359511198041838 0.1600540315768036 0  0.7671795437981852 0.1270865851906907 0  0.7895690044779959 0.089875012069959 0  0.7989002782867461 0.1116194513821486 0  0.825485631780658 0.1498156710261111 0  0.8592156240140376 0.1818784194956707 0  0.8987093451417441 0.2064950441012706 0  0.9423499175804944 0.222657737339227 0  0.9883506911670961 0.2297047966493422 0  1.034828388826053 0.2273477145954656 0  1.079880208154309 0.2156829903938285 0  1.121661722375201 0.1951881792237927 0  1.158462391387408 0.1667023410626976 0  1.188775591477674 0.1313916894718022 0  1.211360296672653 0.09070184667606328 0  1.225291886488074 0.04629865962039181 0  1.23 0 0  1.38 0 0  1.384807527838563 0.04574057197990705 0  1.399019999318628 0.08948206147667601 0  1.422016261237512 0.1293127555043441 0  1.452791266601051 0.1634918616050268 0  1.49 0.1905255888325765 0  1.532016261237512 0.2092324335849338 0  1.577003738081116 0.2187948169810202 0  1.622996261918884 0.2187948169810201 0  1.667983738762489 0.2092324335849338 0  1.71 0.1905255888325765 0  1.747208733398949 0.1634918616050267 0  1.763158635297163 0.1457777009465727 0  1.8 0.1732050807568878 0  1.842639353457782 0.1915979024630978 0  1.888371034217905 0.1996616316542537 0  1.934729635533386 0.1969615506024416 0  1.979215953207831 0.1836432213760548 0  2.019431718340557 0.1604246385510087 0  2.053208888623796 0.1285575219373079 0  2.078726528064682 0.08975983604009244 0  2.089496128668151 0.06017060156551748 0  2.099019999318628 0.08948206147667601 0  2.122016261237512 0.1293127555043441 0  2.152791266601051 0.1634918616050268 0  2.19 0.1905255888325765 0  2.232016261237511 0.2092324335849338 0  2.277003738081116 0.2187948169810202 0  2.322996261918884 0.2187948169810201 0  2.367983738762488 0.2092324335849338 0  2.41 0.1905255888325765 0  2.447208733398949 0.1634918616050267 0  2.457084733682728 0.1525234520934048 0  2.4821507162739 0.173814689612947 0  2.522270987378618 0.1950851111615262 0  2.56602578072392 0.2072335697337205 0  2.611369170802938 0.209692016908736 0  2.656180951091136 0.2023454984290368 0  2.698365772546956 0.1855375293336648 0  2.735951119804184 0.1600540315768036 0  2.767179543798185 0.1270865851906907 0  2.790590838130901 0.08817671132765556 0  2.805090316699118 0.04514379244431505 0  2.81 0 0  3 0 0  3 1.5 0  0 0.7956998320486358 0  0.4110904441558352 0.08887894789033324 0  0.7773699356874649 0.1101500221202465 0  1.5 1.5 0  3 0.75 0  0 0.4434396522484503 0  3 0.375 0  0 0.2673095623483576 0  0 0.1792445173983112 0  0 0.135211994923288 0  2.25 1.5 0  0.75 1.5 0  1.807676614587897 0.8837271123414687 0  1.04553857344641 0.8979441530181422 0  2.403437242208115 0.8132876225209357 0  0.5070864579510219 1.00719278150819 0  3 1.125 0  1.338035405010484 0.5883821138073757 0  2.625 1.5 0  0.3818338799394321 0.6099209340690734 0  2.067950237167102 0.5767429460037152 0  1.428016626639016 0.9663701540160734 0  1.875 1.5 0  2.136976695697423 1.114248364898298 0  1.125 1.5 0  0.375 1.5 0  0.7837785056474272 0.5924157926009261 0  2.621900904970652 1.121900904970652 0  0 1.147849916024318 0  1.717071692555337 0.550779009763445 0  1.678619011272733 1.204235418149387 0  0.8184015011321764 1.160011833453945 0  2.690771901920515 0.5625 0  1.191553529739931 1.18494431212041 0  2.361743998733192 0.516240498397431 0  2.727335050325185 0.8509414958930873 0  1.061120194703906 0.6196995992969355 0  0.269244960297408 0.8637990218922467 0  0.7609530458041533 0.8768664729047809 0  0.5625 1.286150286226427 0  0.2788879438654684 1.226607136693913 0  2.077535333020466 0.8486969269297693 0  2.4375 1.312474598220077 0  2.809426100237187 1.309426100237187 0  1.544358239139601 0.7389704993474611 0  1.434454912167138 1.210530519498476 0  2.380335199591509 1.061271835208851 0  1.926191456889599 1.252931474193008 0  0.5486378118088926 0.7757115443742588 0  0.5753328044103648 0.454959652232189 0  1.281333603460298 0.3634530521588742 0  0.9959109141311655 1.308173392725312 0  1.507364216928931 0.4358170942512657 0  1.21812632380771 0.7680504611018459 0  0 0.6195697421485431 0  1.3125 1.5 0  0.2892140007400885 0.4197188740688536 0  1.924109453869066 0.4139433366638808 0  0.9329747065756857 0.4375180073994652 0  2.243231692495831 0.684324343130167 0  2.0625 1.5 0  2.124178136191116 0.3821183579116478 0  1.923364695744858 0.7179848099571996 0  2.233034933769442 1.295537230099697 0  1.961794510294921 1.014032929092127 0  0.9133498533613748 0.7509830595402348 0  0 0.9717748740364769 0  0.1875 1.5 0  0 1.323924958012159 0  1.227107007305785 0.9862124750220198 0  1.616617139708145 0.9194004298184476 0  2.811636610329211 1.039737091854792 0  0.1901803394569171 0.5855957240372172 0  2.511165533602297 0.6467174115519351 0  2.536466024168012 0.9507486861843897 0  0.1866521719860137 1.047526440960541 0  2.74946330463778 0.3751246081287475 0  2.543804048982231 0.4145708923164018 0  0.9375 1.5 0  2.4375 1.5 0  0.5625 1.5 0  3 0.5625 0  1.6875 1.5 0  3 0.1875 0  3 0.9375 0  3 1.3125 0  2.8125 1.5 0  1.010044310702206 1.096645863828023 0  2.623488142128434 1.314011651358178 0  2.229558763998408 0.9540962470011799 0  2.845385950960257 0.65625 0  0.7525337220569124 0.4130199536593896 0  1.10537722367743 0.3921278680533664 0  0.6842290971134891 1.039833940778862 0  0.7386374643770518 1.32083913541365 0  1.553387564684306 1.08522930563603 0  1.788789291239656 1.06235950910253 0  1.559809215736361 1.334301807720895 0  1.750410104758408 0.7205088288478614 0  1.672011031024921 0.3842266692686779 0  1.77867146649739 1.349246747510312 0  1.21875 1.355246746101045 0  0.8723426006985372 1.001666865795386 0  1.380631426145093 0.7466576340788873 0  0.4259246536592668 0.3283409344703117 0  0.3444360723462823 1.008028502358495 0  0.6161474109915657 0.6198433096250735 0  0.4265019066463465 1.151756411601508 0  1.403034104827827 1.367717620859348 0  2.874684993382777 0.28125 0  2.874778249279309 0.46875 0  2.071314369495706 1.334001876948522 0  2.3 0.3730371416193449 0  1.322682484320052 1.105857305698365 0  1.563127563616163 0.5828461597844022 0  2.559040610931566 0.7958017532902765 0  1.213306121383676 0.5002133671656324 0  1.916121887065227 0.5659454196943852 0  2.207677378621353 0.5116761937353096 0  0.1257028237453774 1.235887437018238 0  0.7203062975228639 0.7304636720840537 0  0.3921145397364951 0.7663844669080319 0  2.70905347612285 0.7067207479465436 0  2.87968965213058 0.84375 0  0.1396742765227637 0.3714373577111671 0  0.1209675020841686 0.8837373530425563 0  0.1396318055029159 0.7309656161457982 0  0.4039274761094683 1.336239793581983 0  2.676470777350768 0.9877614171414461 0  0.2098223519481562 1.355491059017463 0  0.6161949108813681 0.9073080762684851 0  0.6728981805985057 1.187471545812503 0  0.4313243650936899 0.473428383024358 0  1.317579957488075 0.8752219089473544 0  1.05247475519209 0.7587740171666131 0  0.9218858728134471 0.6117854803862035 0  2.343741823603972 1.201704901656183 0  2.483180588903391 1.163054990844907 0  1.336494261441537 0.237261632693729 0  2.096334636915305 0.983917300563715 0  2.059942810014369 0.7131710752499992 0  1.940957218750955 0.8535106616369695 0  0.2735884026449029 0.6956028768230409 0  2.3791553829517 0.6794620539851567 0  2.443566922502795 0.3224565874575337 0  2.21140571429892 0.8179437442036444 0  2.863880028189143 1.175018869261394 0  1.212122991296861 0.6341965806889284 0  0.8702381850023826 1.37471255674248 0  0.4252003220264352 0.89843828480276 0  2.714126143737636 1.217200861470203 0  2.34375 1.406237299110039 0  2.71875 1.406237608026668 0  2.903224894283775 1.403224894283775 0  2.53125 1.5 0  1.444637821860123 0.3169971434781329 0  1.307097209138961 1.253815337580837 0  1.806074818262501 0.3310941379078186 0  0.09375 1.5 0  1.96875 1.5 0  1.467196512253796 0.8429542418758076 0  0.7811182225539175 0.2860230046382459 0  0.8880470276332622 0.8755399020562793 0  2.004554624687214 1.142507703833496 0  1.901808674873915 1.376717053991818 0  1.80956117606876 1.192202387775541 0  0.65625 1.5 0  2.256163989601168 1.076312782066936 0  2.35728348455407 0.9340561611988477 0  0.5508073343087652 1.161974855816299 0  1.822201850254356 0.484799098822588 0  0.6415475671733072 0.3394071993736185 0  0.6854011703162045 0.5171310296285601 0  2.010601404748645 0.3128962050875828 0  1.458109478391155 0.6494112449225909 0  1.556659288882675 1.21212759481645 0  2.15625 1.5 0  1.102952541966123 1.010721102324488 0  3 0.09375 0  2.905 0 0  1.698833571793874 0.8302602504158462 0  0.1128136071602732 0.4908067814983783 0  1.375215724596343 0.4593979824254396 0  1.667188501011557 1.033651962891267 0  0.5152717989473731 0.5573202673988191 0  0.4756630816937197 0.6823252715484635 0  2.485944291803511 0.5248037876852512 0  0.609375 1.393075143113214 0  1.657554629504312 0.6506084627130724 0  1.180547956106694 0.2992004577305749 0  1.040994897946075 0.4976964206623483 0  2.883588023402782 0.1625217501240843 0  1.437965738677728 1.09476840787
[...]
<PointData  Vectors="f_60"> 
<DataArray  type="Float64"  Name="f_60"  NumberOfComponents="3" format="ascii">7.6197532051850659e-05 -4.1822987702850835e-04 0.0000000000000000e+00  -1.1417369824475152e-04 2.6076341546464414e-04 0.0000000000000000e+00  7.9526470190151436e-06 1.7236636678760392e-04 0.0000000000000000e+00  2.9566291098183156e-04 1.7760841837901145e-04 0.0000000000000000e+00  1.5195894461493784e-04 1.9064848354151168e-04 0.0000000000000000e+00  -2.8423117491308529e-04 3.9510038671754629e-04 0.0000000000000000e+00  2.5535808235383406e-04 5.1836549240872123e-04 0.0000000000000000e+00  4.0459782907278815e-05 2.2199633142133181e-04 0.0000000000000000e+00  -3.5947402985079022e-05 1.3734856445199106e-04 0.0000000000000000e+00  2.0999039644585614e-04 -1.9215949698430640e-05 0.0000000000000000e+00  -3.4192431998868297e-04 4.1255963099442458e-04 0.0000000000000000e+00  -5.8575436845248378e-05 4.8250648000929973e-04 0.0000000000000000e+00  1.2083099146347520e-04 1.5877306690627533e-04 0.0000000000000000e+00  -1.0232271631505508e-04 9.3060974286751123e-05 0.0000000000000000e+00  7.3878417751485747e-05 2.7342732704156730e-04 0.0000000000000000e+00  -3.2952112619675886e-05 3.1544677029319678e-04 0.0000000000000000e+00  -1.5418859693534674e-05 4.3069806099513736e-04 0.0000000000000000e+00  3.4385696022752962e-04 4.6249522596892602e-04 0.0000000000000000e+00  5.9523197884948796e-05 2.2753483042224642e-04 0.0000000000000000e+00  9.8725470635532486e-05 1.6472089681005876e-04 0.0000000000000000e+00  -1.2700533657957248e-04 2.6172935663767381e-04 0.0000000000000000e+00  -1.5627502207676209e-04 4.9960917614445951e-04 0.0000000000000000e+00  5.6999484086907611e-05 4.0921967434885817e-04 0.0000000000000000e+00  2.3103466042140401e-05 3.1847155015412399e-04 0.0000000000000000e+00  -2.1937611270489915e-04 2.0322865876431338e-04 0.0000000000000000e+00  -1.7999302047359608e-04 2.9677140273478685e-04 0.0000000000000000e+00  2.1408995783799841e-04 5.3320080159726183e-04 0.0000000000000000e+00  3.6277773640349883e-04 4.0789238047340027e-04 0.0000000000000000e+00  -1.8068179235146116e-04 -1.9103374863889651e-05 0.0000000000000000e+00  1.3770009863179559e-04 1.9759244025319505e-04 0.0000000000000000e+00  -1.5433364208469597e-04 3.0095153738521140e-04 0.0000000000000000e+00  -4.3933238933807677e-05 5.0722153918830466e-04 0.0000000000000000e+00  3.8181293493248585e-04 2.2231489916022472e-04 0.0000000000000000e+00  -5.0245515310599162e-05 2.0169418990028824e-04 0.0000000000000000e+00  2.2623348698280072e-05 -3.8350284208342093e-05 0.0000000000000000e+00  -6.9391843526783518e-06 -1.2705129933339066e-04 0.0000000000000000e+00  -1.4390271106615429e-04 2.7422728721931587e-04 0.0000000000000000e+00  1.5772750645908236e-04 7.6108641095243453e-04 0.0000000000000000e+00  5.0811525992304810e-04 3.8962235446215375e-04 0.0000000000000000e+00  1.1019308516618750e-04 1.8903879997708277e-04 0.0000000000000000e+00  -1.0835954783690950e-04 2.4389273387260765e-04 0.0000000000000000e+00  -1.3670128033226695e-04 2.3382559799234388e-04 0.0000000000000000e+00  -7.1272834488433966e-05 3.7330889793384711e-04 0.0000000000000000e+00  1.2782996127400165e-04 3.4203560361293614e-04 0.0000000000000000e+00  -2.7515690237294487e-07 1.5801521588980387e-04 0.0000000000000000e+00  5.3807412513382172e-05 2.0733253619453310e-04 0.0000000000000000e+00  -1.6119698216978924e-04 3.5358157124039901e-04 0.0000000000000000e+00  -1.4680766879945448e-04 4.4900370546756805e-04 0.0000000000000000e+00  3.3632976352118433e-04 2.7006442459331031e-04 0.0000000000000000e+00  2.8396441248703714e-04 1.2730160411590858e-04 0.0000000000000000e+00  -1.7239146512431922e-04 4.6080575908155066e-04 0.0000000000000000e+00  -3.3618723692966550e-04 4.7762248715093426e-04 0.0000000000000000e+00  -7.1551898272210134e-05 1.7798172788685606e-04 0.0000000000000000e+00  1.3320949485939564e-04 1.4659964438171815e-04 0.0000000000000000e+00  -2.2821709999437214e-04 3.4518131567429444e-04 0.0000000000000000e+00  1.0400089471074064e-04 5.3863399712040562e-04 0.0000000000000000e+00  4.4630019075745883e-04 2.2202888654172207e-04 0.0000000000000000e+00  -1.0376235370096033e-04 1.5371356133711816e-04 0.0000000000000000e+00  -2.1437966737560023e-04 -1.2994509783720282e-05 0.0000000000000000e+00  -6.1144252452986246e-05 1.1271110917749753e-05 0.0000000000000000e+00  4.3365225956291339e-05 -1.9839278114061397e-05 0.0000000000000000e+00  -1.7459026800655675e-05 1.0751155313948409e-04 0.0000000000000000e+00  -4.5620902298534053e-05 5.2030293812247964e-05 0.0000000000000000e+00  2.6222946171322039e-04 1.4026723964716484e-04 0.0000000000000000e+00  5.8722636682482666e-05 1.5053593929818048e-04 0.0000000000000000e+00  -3.6110073719008317e-04 2.7800906592742792e-04 0.0000000000000000e+00  2.2316067111746989e-04 4.3366200158871107e-04 0.0000000000000000e+00  2.8063906760134245e-04 3.8276527905773897e-04 0.0000000000000000e+00  -2.4549947274852197e-07 8.8965101817490216e-05 0.0000000000000000e+00  4.9965885319635805e-05 1.7084648913952470e-04 0.0000000000000000e+00  3.1004136112921512e-04 5.1169636647024799e-04 0.0000000000000000e+00  5.8942909483816709e-04 4.2278092547678314e-04 0.0000000000000000e+00  3.9529835570048126e-04 3.9244792849838157e-04 0.0000000000000000e+00  1.2356622591673408e-04 3.0515615310586447e-04 0.0000000000000000e+00  1.3703094863012357e-04 3.0228612462469384e-04 0.0000000000000000e+00  2.1643046921747747e-04 4.5675024407184551e-05 0.0000000000000000e+00  1.9715660226886386e-04 -1.0904030717349054e-04 0.0000000000000000e+00  1.9995261125993596e-04 -5.8262305945047731e-04 0.0000000000000000e+00  -4.4120841489037917e-04 -1.8086021927329131e-04 0.0000000000000000e+00  -5.6608305075164800e-04 1.4939200000776731e-04 0.0000000000000000e+00  4.5180837331579200e-05 1.2498106397546886e-04 0.0000000000000000e+00  3.2032436938140110e-04 -1.1290200162395195e-04 0.0000000000000000e+00  2.6685841651082938e-04 -7.4885218535010792e-05 0.0000000000000000e+00  -9.6808907360419021e-03 -3.0478912419757420e-03 0.0000000000000000e+00  2.5825608186012725e-03 4.0471701962014006e-04 0.0000000000000000e+00  -1.1125572968716930e-05 2.2813378721651590e-05 0.0000000000000000e+00  -4.1485904821299490e-05 -4.2451678641632891e-05 0.0000000000000000e+00  -2.3831276951115306e-04 1.8391275439800112e-04 0.0000000000000000e+00  1.0363249742240465e-05 -5.3211159913688988e-04 0.0000000000000000e+00  2.3533805888245054e-04 -1.1598494353242472e-04 0.0000000000000000e+00  7.0199755129630212e-06 4.5010117984809264e-05 0.0000000000000000e+00  -4.8947310622058206e-04 1.6287419005221051e-05 0.0000000000000000e+00  1.4752016627235737e-04 3.9162279639945512e-04 0.0000000000000000e+00  1.8849245172643451e-04 2.6847182938917718e-04 0.0000000000000000e+00  1.0347431082240794e-05 3.8521886727450671e-04 0.0000000000000000e+00  -3.0275452915602860e-05 -1.5127850060991525e-04 0.0000000000000000e+00  3.6222493781314224e-05 -1.6330535022130994e-05 0.0000000000000000e+00  4.8828083343261455e-03 5.8013286635680628e-01 0.0000000000000000e+00  2.0691293529970676e-03 -5.3825037237134332e-01 0.0000000000000000e+00  5.0411252784658828e-03 7.1862039374662745e-01 0.0000000000000000e+00  -4.9085046455527121e-03 -2.0825406003385627e-01 0.0000000000000000e+00  1.0307319190824410e-03 2.2255738722078981e-05 0.0000000000000000e+00  2.1115540081900207e-02 -5.2021399884303421e-01 0.0000000000000000e+00  -5.5987470487553720e-04 -2.9568439162642166e-04 0.0000000000000000e+00  1.9745376786672139e-02 -8.6995619139719274e-02 0.0000000000000000e+00  -2.3426128622453760e-02 4.9536612250714096e-01 0.0000000000000000e+00  -5.5434353681958098e-04 4.7800010213704711e-02 0.0000000000000000e+00  3.1078750621252072e-04 -3.1156379154462552e-04 0.0000000000000000e+00  3.5302686689480021e-02 4.6600552442767179e-01 0.0000000000000000e+00  -2.2498694182795101e-04 -3.1270276020886584e-04 0.0000000000000000e+00  2.2491270444268264e-04 -2.8208050384245748e-04 0.0000000000000000e+00  1.6278325365598468e-02 -4.1850971111767094e-01 0.0000000000000000e+00  1.5388863573597522e-01 1.8129341272954808e-01 0.0000000000000000e+00  -7.7110477028962591e-06 2.7021025561282370e-05 0.0000000000000000e+00  1.2276751625438158e-03 -6.6820552521882973e-02 0.0000000000000000e+00  -7.3559280616185291e-03 -4.3017300547878440e-01 0.0000000000000000e+00  -2.0415118896583859e-02 -7.4840809451444890e-02 0.0000000000000000e+00  -1.3254500649521059e-01 8.4305593157352487e-01 0.0000000000000000e+00  -2.0438328995526021e-02 5.4068798592784584e-01 0.0000000000000000e+00  -7.7601446730987469e-02 5.0734922216764722e-01 0.0000000000000000e+00  3.4412150319321322e-02 8.0358421024351256e-01 0.0000000000000000e+00  1.8774914697524719e-02 -5.2315858207752897e-01 0.0000000000000000e+00  4.3066084503175939e-03 4.1832026384462412e-01 0.0000000000000000e+00  2.9142711650129494e-03 -5.3372027412301670e-01 0.0000000000000000e+00  -3.4650986883514263e-02 3.7758447391700906e-01 0.0000000000000000e+00  -1.8209589344988220e-02 4.7972351249363676e-01 0.0000000000000000e+00  6.9305832041440607e-03 5.6700161925564219e-01 0.0000000000000000e+00  1.3770684469952665e-01 4.6783066137008056e-01 0.0000000000000000e+00  3.7432822396811039e-01 -7.2445464224844366e-02 0.0000000000000000e+00  7.6158191436364858e-03 3.4663246356429045e-01 0.0000000000000000e+00  -1.8812498412333577e-02 1.1702091316577809e-01 0.0000000000000000e+00  6.9628628907915963e-02 6.3986259021983527e-01 0.0000000000000000e+00  1.2277680376787845e-02 -4.4479202279029340e-01 0.0000000000000000e+00  9.7678095139674907e-03 2.4924417690312861e-01 0.0000000000000000e+00  2.6640688990912823e-02 4.5636312521767686e-01 0.0000000000000000e+00  4.8082279417723681e-02 -7.0917519187232145e-02 0.0000000000000000e+00  -2.4439279371263077e-02 -2.2706982409350776e-01 0.0000000000000000e+00  8.6261179962809180e-03 5.3570744801291192e-01 0.0000000000000000e+00  1.0917572715731771e-02 5.1510778087524245e-01 0.0000000000000000e+00  -6.3604082218850065e-06 1.7774779104423947e-05 0.0000000000000000e+00  -1.7820393482273413e-04 -8.0660857179361823e-05 0.0000000000000000e+00  3.4848452696520198e-02 5.2152988321496663e-01 0.0000000000000000e+00  -2.4025894080982303e-02 -4.3185998044167778e-01 0.0000000000000000e+00  1.3293948143391339e-02 4.2635833697899644e-01 0.0000000000000000e+00  -2.3274507512729532e-02 -4.2265886373904493e-01 0.0000000000000000e+00  -4.8542517440511670e-04 -4.6921557670403472e-04 0.0000000000000000e+00  -5.5951241905121407e-02 5.2065802321188226e-01 0.0000000000000000e+00  -2.6361238617372803e-03 -4.0648877969713831e-01 0.0000000000000000e+00  6.6063414389855926e-02 -4.4681332826494918e-01 0.0000000000000000e+00  1.3959244313766619e-02 -4.7307550212749894e-01 0.0000000000000000e+00  1.0108145460392650e-02 5.2568984786789241e-01 0.0000000000000000e+00  1.6399523754040592e-05 1.9934560819594512e-05 0.0000000000000000e+00  1.3437961404572576e-04 -2.5608862400514109e-04 0.0000000000000000e+00  6.0281151827040082e-06 -1.2651119852375044e-05 0.0000000000000000e+00  -3.7363111970491816e-03 4.6789396167072395e-01 0.0000000000000000e+00  3.0234628242946093e-03 -3.9090811352677268e-01 0.0000000000000000e+00  1.5428339437560137e-01 1.2254197991946179e-02 0.0000000000000000e+00  1.4926816133599060e-02 -3.7531404427051335e-01 0.0000000000000000e+00  -6.4320406849821599e-02 -1.6085340559392342e-01 0.0000000000000000e+00  5.9715491534369107e-02 -2.9766248919721644e-01 0.0000000000000000e+00  -3.4209871686426700e-03 -4.1272227249848997e-01 0.0000000000000000e+00  -2.9205354361062807e-01 5.6557365853416008e-01 0.0000000000000000e+00  -1.7809700634701375e-01 -3.6673757944550195e-01 0.0000000000000000e+00  5.0511107198714404e-04 -4.2934032612426161e-04 0.0000000000000000e+00  4.6552128306546239e-04 -4.7938337727701356e-04 0.0000000000000000e+00  -4.6083195937067977e-04 -4.5668489304929912e-04 0.0000000000000000e+00  -2.7976635827848748e-04 -4.6694407417117184e-05 0.0000000000000000e+00  1.1775130089613902e-04 -1.9423176806248149e-04 0.0000000000000000e+00  -1.5185090074509287e-03 1.6286737419396091e-05 0.0000000000000000e+00  4.8730512604149354e-04 -9.9404947382283936e-05 0.0000000000000000e+00  1.6471859956046846e-03 1.3518143205736504e-04 0.0000000000000000e+00  2.5549943589674401e-04 -2.0555842584115192e-04 0.0000000000000000e+00  -1.3540020445085720e-02 -3.6265159110324002e-01 0.0000000000000000e+00  2.1356603579426059e-01 1.0283770811045541e-01 0.0000000000000000e+00  2.6906519575712627e-02 -3.8153271380520870e-01 0.0000000000000000e+00  -8.9617631102091505e-02 -1.1774208390993351e-01 0.0000000000000000e+00  1.6877585517210195e-02 -5.4782892506594405e-01 0.0000000000000000e+00  4.2289037790213237e-02 -1.9065543525011849e-01 0.0000000000000000e+00  -8.7696305976925019e-03 -1.0821013674926978e-01 0.0000000000000000e+00  -3.2068163845272002e-02 -5.1758830526882715e-01 0.0000000000000000e+00  -4.9929435430565907e-03 2.5703961360010652e-01 0.0000000000000000e+00  4.3910183286534031e-03 5.6400246546544075e-01 0.0000000000000000e+00  -5.4900360804823875e-03 1.7365589033732640e-01 0.0000000000000000e+00  2.6645061524418951e-03 3.0944668628125455e-01 0.0000000000000000e+00  5.8124244965085297e-03 -4.6276712791575564e-01 0.0000000000000000e+00  -1.9832330708834577e-02 4.8211983588451279e-01 0.0000000000000000e+00  -2.3125596566714011e-02 4.7691565723240192e-01 0.0000000000000000e+00  -6.5699735926465193e-03 4.5566583616660811e-01 0.0000000000000000e+00  1.1160112447351316e-02 -4.2588847941905217e-01 0.0000000000000000e+00  2.8951435185445684e-02 -4.6598861206187747e-01 0.0000000000000000e+00  -3.6528921715793870e-03 3.1157417487045935e-01 0.0000000000000000e+00  1.7509172043457217e-02 5.0600044055042903e-01 0.0000000000000000e+00  -1.4644287402658421e-02 -4.8898002702816346e-01 0.0000000000000000e+00  -6.7071367723568281e-02 -2.1666342197430871e-01 0.0000000000000000e+00  -3.8862099326767924e-01 -5.6303622316156345e-03 0.0000000000000000e+00  -2.2863656702879040e-01 -2.7525864744022077e-02 0.0000000000000000e+00  1.7056163933368326e-02 4.6275100303700467e-01 0.0000000000000000e+00  -7.4323629345727990e-02 -1.8551750568988842e-01 0.0000000000000000e+00  -1.1042699579503636e-02 -4.4925860579550314e-01 0.0000000000000000e+00  8.6807420696098613e-03 1.4994122508305635e-01 0.0000000000000000e+00  -2.0138736585226798e-03 -2.8755049054689841e-01 0.0000000000000000e+00  3.1703534360019110e-02 5.3286300999899627e-01 0.0000000000000000e+00  -1.1645262113681266e-02 -3.6798464815515020e-01 0.0000000000000000e+00  -4.9507152995542890e-02 -2.5707795165686920e-01 0.0000000000000000e+00  -9.1831127216688898e-03 -4.9027575886894542e-01 0.0000000000000000e+00  1.1360835626417060e-02 -4.4623733387483572e-01 0.0000000000000000e+00  1.0506004801001067e-02 -2.0301371442498883e-01 0.0000000000000000e+00  -4.7786960199185935e-02 8.6573945387817663e-01 0.0000000000000000e+00  3.5335778605384609e-02 5.4339290617434468e-03 0.0000000000000000e+00  2.1607895663530101e-02 -5.0775013840967309e-01 0.0000000000000000e+00  2.4475542186526795e-03 -4.7267000299379042e-01 0.0000000000000000e+00  6.6071496324609097e-03 -5.5249430397706156e-01 0.0000000000000000e+00  -1.3566116824517475e-02 -3.0643478012346753e-01 0.0000000000000000e+00  1.0157232926918364e-01 7.7351316614155485e-01 0.0000000000000000e+00  -5.5464969567412321e-02 -1.6374656390101211e-01 0.0000000000000000e+00  9.4009809618949690e-04 5.0820457541183206e-01 0.0000000000000000e+00  -2.0879441951072612e-02 1.9501817412382060e-02 0.0000000000000000e+00  2.9641381344875491e-02 -5.1288500182173435e-01 0.0000000000000000e+00  4.4518358265004405e-03 -4.1269910878262112e-01 0.0000000000000000e+00  1.1111492259953434e-02 -5.3932053599532614e-01 0.0000000000000000e+00  1.5909208641485841e-02 4.9229687851772108e-01 0.0000000000000000e+00  8.5449627328532063e-02 2.9932255506802591e-01 0.0000000000000000e+00  1.1858939349007049e-01 6.8542192216067582e-02 0.0000000000000000e+00  5.4747886276143291e-02 -5.0104446596266761e-01 0.0000000000000000e+00  2.0937442366877470e-02 6.2396867243782173e-01 0.0000000000000000e+00  -7.6591464247652320e-03 4.3992198799711180e-01 0.0000000000000000e+00  5.4298856927476272e-03 -4.7623235767123290e-01 0.0000000000000000e+00  1.2436143752847921e-02 4.4877222998764787e-01 0.0000000000000000e+00  -3.4442431631728748e-02 6.5479629366278824e-01 0.0000000000000000e+00  -1.8503056767464549e-01 3.6974376230585265e-01 0.0000000000000000e+00  2.8277451953559042e-03 -2.6089701423906159e-01 0.0000000000000000e+00  2.7061913985064689e-01 -1.4244966707026319e-01 0.0000000000000000e+00  1.9825440087388745e-02 5.3637559331935725e-01 0.0000000000000000e+00  -6.6886266426050806e-02 4.0740044456789032e-01 0.0000000000000000e+00  2.7744007191955991e-03 -4.8419745734550057e-01 0.0000000000000000e+00  2.4142414704145351e-01 7.7210144001359493e-01 0.0000000000000000e+00  1.9451281445917443e-02 2.0071469173870837e-01 0.0000000000000000e+00  3.5841495241342330e-01 5.3103339232969504e-01 0.0000000000000000e+00  5.2899051733974689e-01 3.0329239401121182e-02 0.0000000000000000e+00  -1.2659873218480826e-04 -1.3409525745142025e-04 0.0000000000000000e+00  4.2106894665637155e-02 1.6630380277703435e-01 0.0000000000000000e+00  -2.1631076102516522e-02 -3.3123686508632066e-01 0.0000000000000000e+00  -9.6790898017727646e-03 5.2294870639730817e-01 0.0000000000000000e+00  -6.5770984414820739e-05 -2.2720610114045913e-04 0.0000000000000000e+00  1.0566477501028175e-04 -8.0670839614273776e-05 0.0000000000000000e+00  5.4185804125252146e-03 4.3657603767327724e-01 0.0000000000000000e+00  5.1906177098835493e-02 -3.8433361028894752e-01 0.0000000000000000e+00  2.6695993629611767e-03 5.2816258162150687e-01 0.0000000000000000e+00  2.0635774940345637e-02 -1.7901216749771875e-01 0.0000000000000000e+00  4.3184701914681711e-02 -2.5233051349853203e-01 0.0000000000000000e+00  2.3990499123472441e-03 5.6175401113219703e-01 0.0000000000000000e+00  3.7215140074302024e-04 -3.7175387447505455e-04 0.0000000000000000e+00  4.9981492309744149e-02 -4.3600171585357117e-01 0.0000000000000000e+00  3.5868694093745782e-02 4.8984223395161186e-01 0.0000000000000000e+00  -1.8437368326050148e-02 2.7512709737073482e-01 0.0000000000000000e+00  -7.8549200412574068e-03 5.1537080467379426e-01 0.0000000000000000e+00  3.7879677992016928e-03 3.1465633342401034e-01 0.0000000000000000e+00  1.8914924141442899e-02 -1.2479510865125357e-01 0.0000000000000000e+00  -1.5625626938105228e-04 -1.2607314043937168e-01 0.0000000000000000e+00  1.2495885877996745e-02 3.5826920639884957e-01 0.0000000000000000e+00  -1.2059474590948697e-02 2.1767427702527578e-01 0.0000000000000000e+00  4.3568402883589649e-04 -3.6984590724190914e-04 0.0000000000000000e+00  -5.9757849447411001e-03 -2.3843335208271454e-01 0.0000000000000000e+00  -3.8643578282245563e-03 -1.6871554460670065e-03 0.0000000000000000e+00  -1.2657952348003529e-04 -3.7267745377199810e-05 0.0000000000000000e+00  4.8482175725056576e-03 -2.5407060478823906e-01 0.0000000000000000e+00  1.2293771574527166e-02 -3.9123446916915655e-01 0.0000000000000000e+00  2.8947288917900226e-02 -4.7396561461769732e-01 0.0000000000000000e+00  7.2455140767064131e-04 -4.8416829697623032e-01 0.0000000000000000e+00  2.3039243749859162e-02 -1.2312950347424860e-01 0.0000000000000000e+00  1.5568520885656053e-02 -4.7966221154315281e-01 0.0000000000000000e+00  -1.0866931373343323e-01 4.8389362291614932e-02 0.0000000000000000e+00  -2.8698804044750430e-02 4.6430062254544530e-01 0.0000000000000000e+00  4.7848770810117259e-03 -5.1438514759989218e-01 0.0000000000000000e+00  8.7325560114146411e-02 4.9056016661765578e-01 0.0000000000000000e+00  2.2309442427204576e-02 -5.2179358432214262e-01 0.0000000000000000e+00  -4.1798883283839727e-01 1.1926749722058951e-01 0.0000000000000000e+00  -8.7113091657587717e-03 1.5873260103136580e-01 0.0000000000000000e+00  -2.3645103004376809e-02 -4.9943001244818319e-01 0.0000000000000000e+00  -2.2745095921071608e-02 3.8670160690705369e-01 0.0000000000000000e+00  -8.5367905481355214e-02 -2.6961485167982946e-01 0.0000000