<?xml version="1.0"?>
<VTKFile type="UnstructuredGrid"  version="0.1"  >
<UnstructuredGrid>
<Piece  NumberOfPoints="4961" NumberOfCells="9546">
<Points>
<DataArray  type="Float64"  NumberOfComponents="3"  format="ascii">0 1.5 0  -0 0.09117947244826481 0  0.0220162612375116 0.1293127555043441 0  0.05279126660105127 0.1634918616050268 0  0.09000000000000007 0.1905255888325765 0  0.1320162612375116 0.2092324335849338 0  0.1770037380811163 0.2187948169810202 0  0.2229962619188838 0.2187948169810201 0  0.2679837387624884 0.2092324335849338 0  0.3100000000000001 0.1905255888325765 0  0.3472087333989489 0.1634918616050267 0  0.3779837387624885 0.1293127555043441 0  0.4009800006813722 0.08948206147667603 0  0.4052662851173224 0.07629023443250138 0  0.4200599930048062 0.1082663100071745 0  0.4475409466961425 0.1444168863592189 0  0.4821507162738997 0.173814689612947 0  0.522270987378618 0.1950851111615262 0  0.5660257807239194 0.2072335697337205 0  0.6113691708029376 0.209692016908736 0  0.6561809510911363 0.2023454984290368 0  0.6983657725469559 0.1855375293336648 0  0.7359511198041838 0.1600540315768036 0  0.7671795437981852 0.1270865851906907 0  0.7895690044779959 0.089875012069959 0  0.7989002782867461 0.1116194513821486 0  0.825485631780658 0.1498156710261111 0  0.8592156240140376 0.1818784194956707 0  0.8987093451417441 0.2064950441012706 0  0.9423499175804944 0.222657737339227 0  0.9883506911670961 0.2297047966493422 0  1.034828388826053 0.2273477145954656 0  1.079880208154309 0.2156829903938285 0  1.121661722375201 0.1951881792237927 0  1.158462391387408 0.1667023410626976 0  1.188775591477674 0.1313916894718022 0  1.211360296672653 0.09070184667606328 0  1.225291886488074 0.04629865962039181 0  1.23 0 0  1.38 0 0  1.384807527838563 0.04574057197990705 0  1.399019999318628 0.08948206147667601 0  1.422016261237512 0.1293127555043441 0  1.452791266601051 0.1634918616050268 0  1.49 0.1905255888325765 0  1.532016261237512 0.2092324335849338 0  1.577003738081116 0.2187948169810202 0  1.622996261918884 0.2187948169810201 0  1.667983738762489 0.2092324335849338 0  1.71 0.1905255888325765 0  1.747208733398949 0.1634918616050267 0  1.763158635297163 0.1457777009465727 0  1.8 0.1732050807568878 0  1.842639353457782 0.1915979024630978 0  1.888371034217905 0.1996616316542537 0  1.934729635533386 0.1969615506024416 0  1.979215953207831 0.1836432213760548 0  2.019431718340557 0.1604246385510087 0  2.053208888623796 0.1285575219373079 0  2.078726528064682 0.08975983604009244 0  2.089496128668151 0.06017060156551748 0  2.099019999318628 0.08948206147667601 0  2.122016261237512 0.1293127555043441 0  2.152791266601051 0.1634918616050268 0  2.19 0.1905255888325765 0  2.232016261237511 0.2092324335849338 0  2.277003738081116 0.2187948169810202 0  2.322996261918884 0.2187948169810201 0  2.367983738762488 0.2092324335849338 0  2.41 0.1905255888325765 0  2.447208733398949 0.1634918616050267 0  2.457084733682728 0.1525234520934048 0  2.4821507162739 0.173814689612947 0  2.522270987378618 0.1950851111615262 0  2.56602578072392 0.2072335697337205 0  2.611369170802938 0.209692016908736 0  2.656180951091136 0.2023454984290368 0  2.698365772546956 0.1855375293336648 0  2.735951119804184 0.1600540315768036 0  2.767179543798185 0.1270865851906907 0  2.790590838130901 0.08817671132765556 0  2.805090316699118 0.04514379244431505 0  2.81 0 0  3 0 0  3 1.5 0  0 0.7956998320486358 0  0.4110904441558352 0.08887894789033324 0  0.7773699356874649 0.1101500221202465 0  1.5 1.5 0  3 0.75 0  0 0.4434396522484503 0  3 0.375 0  0 0.2673095623483576 0  0 0.1792445173983112 0  0 0.135211994923288 0  2.25 1.5 0  0.75 1.5 0  1.807676614587897 0.8837271123414687 0  1.04553857344641 0.8979441530181422 0  2.403437242208115 0.8132876225209357 0  0.5070864579510219 1.00719278150819 0  3 1.125 0  1.338035405010484 0.5883821138073757 0  2.625 1.5 0  0.3818338799394321 0.6099209340690734 0  2.067950237167102 0.5767429460037152 0  1.428016626639016 0.9663701540160734 0  1.875 1.5 0  2.136976695697423 1.114248364898298 0  1.125 1.5 0  0.375 1.5 0  0.7837785056474272 0.5924157926009261 0  2.621900904970652 1.121900904970652 0  0 1.147849916024318 0  1.717071692555337 0.550779009763445 0  1.678619011272733 1.204235418149387 0  0.8184015011321764 1.160011833453945 0  2.690771901920515 0.5625 0  1.191553529739931 1.18494431212041 0  2.361743998733192 0.516240498397431 0  2.727335050325185 0.8509414958930873 0  1.061120194703906 0.6196995992969355 0  0.269244960297408 0.8637990218922467 0  0.7609530458041533 0.8768664729047809 0  0.5625 1.286150286226427 0  0.2788879438654684 1.226607136693913 0  2.077535333020466 0.8486969269297693 0  2.4375 1.312474598220077 0  2.809426100237187 1.309426100237187 0  1.544358239139601 0.7389704993474611 0  1.434454912167138 1.210530519498476 0  2.380335199591509 1.061271835208851 0  1.926191456889599 1.252931474193008 0  0.5486378118088926 0.7757115443742588 0  0.5753328044103648 0.454959652232189 0  1.281333603460298 0.3634530521588742 0  0.9959109141311655 1.308173392725312 0  1.507364216928931 0.4358170942512657 0  1.21812632380771 0.7680504611018459 0  0 0.6195697421485431 0  1.3125 1.5 0  0.2892140007400885 0.4197188740688536 0  1.924109453869066 0.4139433366638808 0  0.9329747065756857 0.4375180073994652 0  2.243231692495831 0.684324343130167 0  2.0625 1.5 0  2.124178136191116 0.3821183579116478 0  1.923364695744858 0.7179848099571996 0  2.233034933769442 1.295537230099697 0  1.961794510294921 1.014032929092127 0  0.9133498533613748 0.7509830595402348 0  0 0.9717748740364769 0  0.1875 1.5 0  0 1.323924958012159 0  1.227107007305785 0.9862124750220198 0  1.616617139708145 0.9194004298184476 0  2.811636610329211 1.039737091854792 0  0.1901803394569171 0.5855957240372172 0  2.511165533602297 0.6467174115519351 0  2.536466024168012 0.9507486861843897 0  0.1866521719860137 1.047526440960541 0  2.74946330463778 0.3751246081287475 0  2.543804048982231 0.4145708923164018 0  0.9375 1.5 0  2.4375 1.5 0  0.5625 1.5 0  3 0.5625 0  1.6875 1.5 0  3 0.1875 0  3 0.9375 0  3 1.3125 0  2.8125 1.5 0  1.010044310702206 1.096645863828023 0  2.623488142128434 1.314011651358178 0  2.229558763998408 0.9540962470011799 0  2.845385950960257 0.65625 0  0.7525337220569124 0.4130199536593896 0  1.10537722367743 0.3921278680533664 0  0.6842290971134891 1.039833940778862 0  0.7386374643770518 1.32083913541365 0  1.553387564684306 1.08522930563603 0  1.788789291239656 1.06235950910253 0  1.559809215736361 1.334301807720895 0  1.750410104758408 0.7205088288478614 0  1.672011031024921 0.3842266692686779 0  1.77867146649739 1.349246747510312 0  1.21875 1.355246746101045 0  0.8723426006985372 1.001666865795386 0  1.380631426145093 0.7466576340788873 0  0.4259246536592668 0.3283409344703117 0  0.3444360723462823 1.008028502358495 0  0.6161474109915657 0.6198433096250735 0  0.4265019066463465 1.151756411601508 0  1.403034104827827 1.367717620859348 0  2.874684993382777 0.28125 0  2.874778249279309 0.46875 0  2.071314369495706 1.334001876948522 0  2.3 0.3730371416193449 0  1.322682484320052 1.105857305698365 0  1.563127563616163 0.5828461597844022 0  2.559040610931566 0.7958017532902765 0  1.213306121383676 0.5002133671656324 0  1.916121887065227 0.5659454196943852 0  2.207677378621353 0.5116761937353096 0  0.1257028237453774 1.235887437018238 0  0.7203062975228639 0.7304636720840537 0  0.3921145397364951 0.7663844669080319 0  2.70905347612285 0.7067207479465436 0  2.87968965213058 0.84375 0  0.1396742765227637 0.3714373577111671 0  0.1209675020841686 0.8837373530425563 0  0.1396318055029159 0.7309656161457982 0  0.4039274761094683 1.336239793581983 0  2.676470777350768 0.9877614171414461 0  0.2098223519481562 1.355491059017463 0  0.6161949108813681 0.9073080762684851 0  0.6728981805985057 1.187471545812503 0  0.4313243650936899 0.473428383024358 0  1.317579957488075 0.8752219089473544 0  1.05247475519209 0.7587740171666131 0  0.9218858728134471 0.6117854803862035 0  2.343741823603972 1.201704901656183 0  2.483180588903391 1.163054990844907 0  1.336494261441537 0.237261632693729 0  2.096334636915305 0.983917300563715 0  2.059942810014369 0.7131710752499992 0  1.940957218750955 0.8535106616369695 0  0.2735884026449029 0.6956028768230409 0  2.3791553829517 0.6794620539851567 0  2.443566922502795 0.3224565874575337 0  2.21140571429892 0.8179437442036444 0  2.863880028189143 1.175018869261394 0  1.212122991296861 0.6341965806889284 0  0.8702381850023826 1.37471255674248 0  0.4252003220264352 0.89843828480276 0  2.714126143737636 1.217200861470203 0  2.34375 1.406237299110039 0  2.71875 1.406237608026668 0  2.903224894283775 1.403224894283775 0  2.53125 1.5 0  1.444637821860123 0.3169971434781329 0  1.307097209138961 1.253815337580837 0  1.806074818262501 0.3310941379078186 0  0.09375 1.5 0  1.96875 1.5 0  1.467196512253796 0.8429542418758076 0  0.7811182225539175 0.2860230046382459 0  0.8880470276332622 0.8755399020562793 0  2.004554624687214 1.142507703833496 0  1.901808674873915 1.376717053991818 0  1.80956117606876 1.192202387775541 0  0.65625 1.5 0  2.256163989601168 1.076312782066936 0  2.35728348455407 0.9340561611988477 0  0.5508073343087652 1.161974855816299 0  1.822201850254356 0.484799098822588 0  0.6415475671733072 0.3394071993736185 0  0.6854011703162045 0.5171310296285601 0  2.010601404748645 0.3128962050875828 0  1.458109478391155 0.6494112449225909 0  1.556659288882675 1.21212759481645 0  2.15625 1.5 0  1.102952541966123 1.010721102324488 0  3 0.09375 0  2.905 0 0  1.698833571793874 0.8302602504158462 0  0.1128136071602732 0.4908067814983783 0  1.375215724596343 0.4593979824254396 0  1.667188501011557 1.033651962891267 0  0.5152717989473731 0.5573202673988191 0  0.4756630816937197 0.6823252715484635 0  2.485944291803511 0.5248037876852512 0  0.609375 1.393075143113214 0  1.657554629504312 0.6506084627130724 0  1.180547956106694 0.2992004577305749 0  1.040994897946075 0.4976964206623483 0  2.883588023402782 0.1625217501240843 0  1.437965738677728 1.09476840787
[...]
<PointData  Vectors="f_60"> 
<DataArray  type="Float64"  Name="f_60"  NumberOfComponents="3" format="ascii">-1.0555348913743985e-04 -2.3231112277709632e-04 0.0000000000000000e+00  5.6688647278806679e-04 -4.2668791108159681e-04 0.0000000000000000e+00  3.9695233983151363e-04 -2.5247872052957659e-04 0.0000000000000000e+00  8.9149801252906739e-05 -7.0945687765410886e-05 0.0000000000000000e+00  1.2197555430382422e-04 -1.9159982877815725e-04 0.0000000000000000e+00  -1.7753053881524214e-04 2.4552280454248637e-04 0.0000000000000000e+00  2.5214106822214999e-04 4.0760319777883469e-04 0.0000000000000000e+00  2.2717722836692713e-04 9.2222466199099248e-05 0.0000000000000000e+00  1.4603044910567933e-04 6.3330450874731110e-06 0.0000000000000000e+00  -4.2106909605105307e-05 -1.6886603217268533e-04 0.0000000000000000e+00  -3.4646116636694643e-04 2.6149494027112775e-04 0.0000000000000000e+00  -1.2483300318264803e-05 3.4801072779745273e-04 0.0000000000000000e+00  1.8485414808626865e-04 2.6078387009347898e-04 0.0000000000000000e+00  -1.0376771821085210e-04 1.7108360406179493e-04 0.0000000000000000e+00  5.1408934568002793e-05 1.6751257712598598e-04 0.0000000000000000e+00  -2.2116854909417506e-05 1.8124749172659496e-04 0.0000000000000000e+00  6.1020269941683700e-05 2.7983771678702563e-04 0.0000000000000000e+00  3.7424780008563779e-04 3.7133091232209473e-04 0.0000000000000000e+00  2.6514244607265603e-04 2.2765440704198580e-04 0.0000000000000000e+00  -1.5375859331312723e-05 -1.4698587785739266e-05 0.0000000000000000e+00  -2.5131592267933403e-04 8.0470341529162272e-05 0.0000000000000000e+00  -1.3059096673885890e-04 4.0204637059313472e-04 0.0000000000000000e+00  9.4367917569600012e-05 2.9366970661398568e-04 0.0000000000000000e+00  1.7904810266254083e-05 2.1944215286999103e-04 0.0000000000000000e+00  -1.4428134191255500e-04 2.8202324004513314e-04 0.0000000000000000e+00  -2.3664217746844032e-04 3.9276340877564985e-04 0.0000000000000000e+00  1.6888950761545889e-04 4.1058375821606389e-04 0.0000000000000000e+00  4.8367929659893729e-04 2.3232499561562150e-04 0.0000000000000000e+00  5.6778502940858879e-05 -1.3647563771053574e-04 0.0000000000000000e+00  -3.2798946622880634e-05 1.5550832497894170e-05 0.0000000000000000e+00  -3.3261193672014645e-04 2.9008076467944478e-04 0.0000000000000000e+00  -5.5001693584182388e-05 3.8361210896745146e-04 0.0000000000000000e+00  4.2839125903901639e-04 5.2253653135261555e-05 0.0000000000000000e+00  6.9640831425342857e-05 -1.4472840839845861e-04 0.0000000000000000e+00  -1.7019073508554723e-05 -1.5147556958900932e-04 0.0000000000000000e+00  -2.1282724175666640e-04 -6.4168781810557168e-06 0.0000000000000000e+00  -1.2244821907423596e-04 2.5688582917151654e-04 0.0000000000000000e+00  6.4929419690895604e-05 4.5177385564853367e-04 0.0000000000000000e+00  3.0359277841450353e-04 5.1358092656051974e-04 0.0000000000000000e+00  3.6309276103719743e-05 3.3822994854050727e-04 0.0000000000000000e+00  -1.0105275651715007e-04 1.5066466019400849e-04 0.0000000000000000e+00  -1.3001203292382799e-04 1.8444387347259469e-04 0.0000000000000000e+00  -7.2027976393852983e-05 3.0945399183855671e-04 0.0000000000000000e+00  2.2437731709669756e-04 2.1106278301570911e-04 0.0000000000000000e+00  1.8377020449308892e-04 5.4010496664922181e-05 0.0000000000000000e+00  -2.3179857181618701e-05 -5.6536063953395445e-05 0.0000000000000000e+00  -2.5397932416537460e-04 1.3121889498391047e-04 0.0000000000000000e+00  -1.4293073474400513e-04 3.4590086691127785e-04 0.0000000000000000e+00  3.3037416951581071e-04 1.2899185767359741e-04 0.0000000000000000e+00  3.6372274066278092e-04 -2.3077119009132956e-04 0.0000000000000000e+00  -6.8519451243525577e-05 -7.0510669155537335e-04 0.0000000000000000e+00  2.2464846944868734e-05 -1.0631296835804220e-03 0.0000000000000000e+00  1.3167516071868677e-04 -6.8119932417435122e-05 0.0000000000000000e+00  -2.1142837435248239e-04 -1.0238306296753517e-04 0.0000000000000000e+00  -3.7000879284772347e-04 4.1650448001989655e-04 0.0000000000000000e+00  1.3774279951032395e-05 3.4256772989137260e-04 0.0000000000000000e+00  3.7180000002768319e-04 1.1646896354018434e-04 0.0000000000000000e+00  8.5875292917178645e-05 -2.3834377400812869e-04 0.0000000000000000e+00  -2.4256005495441437e-04 -4.4551680899057589e-04 0.0000000000000000e+00  -2.6717660372866064e-04 -3.6058340757264852e-04 0.0000000000000000e+00  -5.6347828123478206e-04 -7.8790451748109104e-04 0.0000000000000000e+00  -4.0131657096109452e-04 -1.1900452849577027e-03 0.0000000000000000e+00  1.3033605765815808e-04 -1.8939162631528370e-04 0.0000000000000000e+00  3.3552763091317118e-05 -1.8777880432666670e-04 0.0000000000000000e+00  -1.1536448482752622e-04 -9.7193857039510882e-05 0.0000000000000000e+00  -2.9472482658988547e-04 1.5313732857506271e-04 0.0000000000000000e+00  2.3521118214948512e-04 3.3406016008085364e-04 0.0000000000000000e+00  3.4106170781172561e-04 1.9726499802913400e-04 0.0000000000000000e+00  2.7856985682341922e-05 5.7491912748491506e-07 0.0000000000000000e+00  9.4776366893821661e-06 9.1970477528119249e-05 0.0000000000000000e+00  3.5095939557931054e-04 -8.0117929373675633e-04 0.0000000000000000e+00  3.0552456515289464e-04 -1.1572083770494451e-03 0.0000000000000000e+00  3.5880232815386435e-04 -7.7986487288567283e-04 0.0000000000000000e+00  -5.6641148155152590e-05 1.0984472275099045e-04 0.0000000000000000e+00  8.7453995914775213e-05 1.9064429271266109e-04 0.0000000000000000e+00  2.8785267493729161e-04 -1.0102939132382653e-05 0.0000000000000000e+00  2.6511778624795773e-04 -1.5141292702331374e-04 0.0000000000000000e+00  -1.5454640919838859e-04 -3.2057005957197902e-04 0.0000000000000000e+00  -3.0685402703273056e-04 1.2798932073275238e-04 0.0000000000000000e+00  -2.2010577548210503e-04 1.7029813262710173e-04 0.0000000000000000e+00  -3.7155986877617295e-04 1.7263595174504012e-04 0.0000000000000000e+00  3.1830677207717164e-04 -4.5263371677400198e-05 0.0000000000000000e+00  3.2068091541636071e-04 1.3203226722948987e-05 0.0000000000000000e+00  -7.3907921936969675e-03 -2.9576117292795484e-03 0.0000000000000000e+00  3.6000797994705852e-03 6.9508458361477240e-04 0.0000000000000000e+00  -2.3679059308840220e-05 3.6400184944819236e-05 0.0000000000000000e+00  -2.2916254036506626e-05 -4.0360362993858401e-05 0.0000000000000000e+00  -2.5543118722887127e-04 2.1499369298187519e-04 0.0000000000000000e+00  3.2642342527909799e-06 -5.0261369231121189e-04 0.0000000000000000e+00  6.8000788436194627e-05 -9.6602512701626550e-05 0.0000000000000000e+00  2.1642387166074629e-05 4.0518761990336145e-05 0.0000000000000000e+00  -5.2286166408297362e-04 -3.2478658212532984e-05 0.0000000000000000e+00  1.3352758260942409e-04 1.6509281049605830e-04 0.0000000000000000e+00  5.2427204443673441e-05 -3.1271482104351977e-05 0.0000000000000000e+00  3.8157228669124577e-04 -6.1618976514331281e-04 0.0000000000000000e+00  -4.1370714625334513e-05 1.2707527793787006e-05 0.0000000000000000e+00  -6.4337516472859194e-05 3.1857927435888602e-05 0.0000000000000000e+00  2.6253407371655481e-03 3.1788523483647219e-01 0.0000000000000000e+00  1.0986991730063170e-03 -2.9488897185191754e-01 0.0000000000000000e+00  2.0816341450588540e-03 3.9383426749745010e-01 0.0000000000000000e+00  -2.5852556920383384e-03 -1.1437342806129050e-01 0.0000000000000000e+00  9.0189762801191019e-04 -5.8340301637057841e-05 0.0000000000000000e+00  1.1311112383889557e-02 -2.8526930545937507e-01 0.0000000000000000e+00  -6.2005324665227290e-04 -1.3983290204930724e-04 0.0000000000000000e+00  1.0616796321853132e-02 -4.8523107817852525e-02 0.0000000000000000e+00  -1.3163316895755823e-02 2.7126560129857374e-01 0.0000000000000000e+00  -2.8367205599715473e-04 2.6180075788670699e-02 0.0000000000000000e+00  4.6942642539973275e-04 -4.5159550945032732e-05 0.0000000000000000e+00  1.9441959460820508e-02 2.5446102316029345e-01 0.0000000000000000e+00  -4.6907741880181781e-04 -1.1265749544661916e-04 0.0000000000000000e+00  2.9512051064973046e-04 -2.4193607746412902e-04 0.0000000000000000e+00  8.8351884143084269e-03 -2.2904725255657454e-01 0.0000000000000000e+00  8.4663371073999669e-02 1.0447512143105050e-01 0.0000000000000000e+00  -2.3787072239825182e-06 3.9262562616065089e-05 0.0000000000000000e+00  5.0224571043677268e-04 -3.6496405142976945e-02 0.0000000000000000e+00  -3.9094813644447411e-03 -2.3562534390683609e-01 0.0000000000000000e+00  -1.1002000212799477e-02 -4.1722115136076501e-02 0.0000000000000000e+00  -7.3711443194846543e-02 4.6193624026815100e-01 0.0000000000000000e+00  -1.0945373064070844e-02 2.9612274113310799e-01 0.0000000000000000e+00  -4.2780595405747752e-02 2.7658505819751161e-01 0.0000000000000000e+00  1.7904179882865648e-02 4.3944550578511754e-01 0.0000000000000000e+00  1.0211470779866618e-02 -2.8649777613785182e-01 0.0000000000000000e+00  2.3934413800232633e-03 2.2888519241004909e-01 0.0000000000000000e+00  1.5487858995490631e-03 -2.9246292883940223e-01 0.0000000000000000e+00  -1.8536718582239167e-02 2.0620785723139470e-01 0.0000000000000000e+00  -9.5408149101371877e-03 2.6234886102818467e-01 0.0000000000000000e+00  3.5264080136466589e-03 3.1097645415607816e-01 0.0000000000000000e+00  7.5219577260820708e-02 2.5386987168767972e-01 0.0000000000000000e+00  2.0581516677467873e-01 -4.5447795684096216e-02 0.0000000000000000e+00  4.1269139759241326e-03 1.8978134684971854e-01 0.0000000000000000e+00  -1.0150242807801977e-02 6.3642509459270052e-02 0.0000000000000000e+00  3.7807391915856463e-02 3.5162689851595824e-01 0.0000000000000000e+00  6.7874654893329729e-03 -2.4369768322341728e-01 0.0000000000000000e+00  5.3307566603141582e-03 1.3661617063827455e-01 0.0000000000000000e+00  1.4324069741208504e-02 2.5039953373317086e-01 0.0000000000000000e+00  2.6044572659312031e-02 -4.0686526751029337e-02 0.0000000000000000e+00  -1.3397703133766405e-02 -1.2350884106493948e-01 0.0000000000000000e+00  4.5483803428617133e-03 2.9384230451409815e-01 0.0000000000000000e+00  6.0482078215981479e-03 2.8202538758157680e-01 0.0000000000000000e+00  4.3970487983249242e-06 -4.2387697713164798e-07 0.0000000000000000e+00  9.9831768410248124e-05 -1.0977489829116950e-05 0.0000000000000000e+00  1.8735469730560967e-02 2.8550562011921732e-01 0.0000000000000000e+00  -1.3328849569116641e-02 -2.3650439891441391e-01 0.0000000000000000e+00  7.2510477013935119e-03 2.3325909835433789e-01 0.0000000000000000e+00  -1.2504910384175155e-02 -2.3131900793724763e-01 0.0000000000000000e+00  -3.4136413608248272e-04 -4.9711860700627386e-04 0.0000000000000000e+00  -3.0903051759322436e-02 2.8656302476257395e-01 0.0000000000000000e+00  -1.3637487219642626e-03 -2.2254197762256406e-01 0.0000000000000000e+00  3.6544675308392310e-02 -2.4493019302934024e-01 0.0000000000000000e+00  7.8396002296239036e-03 -2.5878508129505479e-01 0.0000000000000000e+00  5.5624696759718571e-03 2.8781203207530254e-01 0.0000000000000000e+00  3.2010993759945082e-05 2.1301216321710807e-05 0.0000000000000000e+00  -3.6965853277753409e-05 2.5658702263266183e-05 0.0000000000000000e+00  -1.6019436588620938e-05 3.7712827858684295e-05 0.0000000000000000e+00  -1.9275393684887634e-03 2.5634399722694634e-01 0.0000000000000000e+00  1.6423506127159482e-03 -2.1409245346497194e-01 0.0000000000000000e+00  8.4556599527457393e-02 4.1972223866388533e-03 0.0000000000000000e+00  7.9562942682247072e-03 -2.0570534159670648e-01 0.0000000000000000e+00  -3.5043725246663063e-02 -8.6583632085163384e-02 0.0000000000000000e+00  3.3075122519014573e-02 -1.6302298795021261e-01 0.0000000000000000e+00  -1.7906794230898835e-03 -2.2662300428066881e-01 0.0000000000000000e+00  -1.6060829889891332e-01 3.1730495999429725e-01 0.0000000000000000e+00  -9.6407446242787090e-02 -2.0059548351279080e-01 0.0000000000000000e+00  4.8454344389619030e-04 -3.1349363068534165e-04 0.0000000000000000e+00  3.9482182990851686e-04 -3.0402036114790445e-04 0.0000000000000000e+00  -3.5016393975766715e-04 -1.7357965894963017e-04 0.0000000000000000e+00  -3.9733713621738437e-04 -4.5355116816057365e-05 0.0000000000000000e+00  -1.9779392082107605e-04 -6.9673027716673990e-05 0.0000000000000000e+00  -1.1784858823911759e-03 5.5354103816124573e-05 0.0000000000000000e+00  3.4841099969400602e-04 -9.1630007243055184e-05 0.0000000000000000e+00  1.6391721681002667e-03 -3.4288493284784636e-05 0.0000000000000000e+00  1.7911264759071192e-04 -4.4860592656878042e-05 0.0000000000000000e+00  -7.3856049515899124e-03 -1.9839184577107363e-01 0.0000000000000000e+00  1.1736848261295804e-01 6.3367590418505509e-02 0.0000000000000000e+00  1.4941695671599338e-02 -2.0871706237621557e-01 0.0000000000000000e+00  -4.8284645612055165e-02 -6.4323937784261945e-02 0.0000000000000000e+00  9.0582984069483407e-03 -3.0029584963443334e-01 0.0000000000000000e+00  2.2748455009797237e-02 -1.0361158000178579e-01 0.0000000000000000e+00  -4.7132349165479835e-03 -5.9194125210501741e-02 0.0000000000000000e+00  -1.7498871600539315e-02 -2.8343648799559606e-01 0.0000000000000000e+00  -2.6021072457881747e-03 1.4101796531641214e-01 0.0000000000000000e+00  2.4352710555417645e-03 3.0900864443632808e-01 0.0000000000000000e+00  -3.1453944703157197e-03 9.5791600815940403e-02 0.0000000000000000e+00  1.3571217818418881e-03 1.6977678869906154e-01 0.0000000000000000e+00  2.9660417591320051e-03 -2.5361030537647428e-01 0.0000000000000000e+00  -1.0354551174821969e-02 2.6499186341455688e-01 0.0000000000000000e+00  -1.2479052223011161e-02 2.6232706791173360e-01 0.0000000000000000e+00  -3.4580605421524460e-03 2.4946633340319138e-01 0.0000000000000000e+00  5.9886308669882095e-03 -2.3306687150766198e-01 0.0000000000000000e+00  1.5471672756963647e-02 -2.5674186011721323e-01 0.0000000000000000e+00  -1.8437949467592473e-03 1.7052064407077921e-01 0.0000000000000000e+00  9.5419914193144578e-03 2.7694976772520336e-01 0.0000000000000000e+00  -7.9356275698935115e-03 -2.6792152487580112e-01 0.0000000000000000e+00  -3.6688932866977227e-02 -1.1847875122335316e-01 0.0000000000000000e+00  -2.1153475857607221e-01 -9.3227395404548649e-03 0.0000000000000000e+00  -1.2443098813675707e-01 -1.8973642357791729e-02 0.0000000000000000e+00  9.7504036287157630e-03 2.5435414166811404e-01 0.0000000000000000e+00  -4.1182208564445683e-02 -1.0385036582342390e-01 0.0000000000000000e+00  -6.0176673031979077e-03 -2.4583484587176385e-01 0.0000000000000000e+00  4.5850043061638765e-03 8.2082497196042201e-02 0.0000000000000000e+00  -5.4408976590172994e-04 -1.5706706597205630e-01 0.0000000000000000e+00  1.7414623416647651e-02 2.9148454856202899e-01 0.0000000000000000e+00  -6.4006846289588045e-03 -2.0140680322175478e-01 0.0000000000000000e+00  -2.6998887708784006e-02 -1.3969204272394570e-01 0.0000000000000000e+00  -4.9523595252486423e-03 -2.6899190329943978e-01 0.0000000000000000e+00  6.1089934772812545e-03 -2.4474580979227215e-01 0.0000000000000000e+00  5.6675971115025519e-03 -1.1172362273937354e-01 0.0000000000000000e+00  -2.6679212537398654e-02 4.7452180144660372e-01 0.0000000000000000e+00  2.0413738501428795e-02 3.2405513970559280e-03 0.0000000000000000e+00  1.1504451750393559e-02 -2.7943213256466159e-01 0.0000000000000000e+00  1.3752473005470755e-03 -2.5923635567942022e-01 0.0000000000000000e+00  3.5512016047118790e-03 -3.0308165344895716e-01 0.0000000000000000e+00  -7.0947608484668691e-03 -1.6750920333102184e-01 0.0000000000000000e+00  5.4952494384250782e-02 4.2501395326592545e-01 0.0000000000000000e+00  -3.0011808139721912e-02 -8.9986188922781318e-02 0.0000000000000000e+00  6.4114229296368004e-04 2.7819593159207079e-01 0.0000000000000000e+00  -1.1240465550274746e-02 1.1271634448675454e-02 0.0000000000000000e+00  1.5841561795903011e-02 -2.8150581778481382e-01 0.0000000000000000e+00  2.3831190218335180e-03 -2.2614626513984173e-01 0.0000000000000000e+00  6.0043434689296439e-03 -2.9543846408310576e-01 0.0000000000000000e+00  8.6590308899890337e-03 2.6945685087525845e-01 0.0000000000000000e+00  4.7037331986794668e-02 1.6676931522982846e-01 0.0000000000000000e+00  6.5102284306929867e-02 3.4548031820644108e-02 0.0000000000000000e+00  3.0072470584687025e-02 -2.7549132571416030e-01 0.0000000000000000e+00  1.1332837404625274e-02 3.4220827502998896e-01 0.0000000000000000e+00  -4.4841424047207395e-03 2.4119336702058855e-01 0.0000000000000000e+00  3.0142486237451898e-03 -2.6074424756625497e-01 0.0000000000000000e+00  6.7776429313581715e-03 2.4568721555561401e-01 0.0000000000000000e+00  -1.9326370100647066e-02 3.5868212845297975e-01 0.0000000000000000e+00  -1.0167258140982857e-01 2.0653351885334126e-01 0.0000000000000000e+00  1.6990117559001715e-03 -1.4261411730381607e-01 0.0000000000000000e+00  1.4804954888438887e-01 -7.5241548569367739e-02 0.0000000000000000e+00  1.0896949438490991e-02 2.9360723501647978e-01 0.0000000000000000e+00  -3.5668757859148172e-02 2.2316499677953697e-01 0.0000000000000000e+00  1.4959921191800923e-03 -2.6555870115244662e-01 0.0000000000000000e+00  1.3197979384287625e-01 4.2195832481767387e-01 0.0000000000000000e+00  1.3421270992552177e-02 1.1253777762698307e-01 0.0000000000000000e+00  1.9571547974667050e-01 2.8938819904975788e-01 0.0000000000000000e+00  2.9099323345683897e-01 3.3455925842697347e-02 0.0000000000000000e+00  -2.1754677338381593e-05 6.1446767949038949e-05 0.0000000000000000e+00  2.3118842196582730e-02 9.1366132999827127e-02 0.0000000000000000e+00  -1.1828931640888277e-02 -1.8086286489532236e-01 0.0000000000000000e+00  -5.5823699178567405e-03 2.8744395564157427e-01 0.0000000000000000e+00  1.6329689754034031e-04 -6.3063021078244987e-05 0.0000000000000000e+00  3.5199835649585526e-05 -3.7667047346116560e-05 0.0000000000000000e+00  2.9938356160309149e-03 2.3928962697629036e-01 0.0000000000000000e+00  2.7902185883114567e-02 -2.1069170530464118e-01 0.0000000000000000e+00  1.5698242901579995e-03 2.8925611459002176e-01 0.0000000000000000e+00  1.1471537117133897e-02 -9.7361782919045431e-02 0.0000000000000000e+00  2.4021788593430370e-02 -1.3965106035002928e-01 0.0000000000000000e+00  1.5041173275677328e-03 3.0776713614429341e-01 0.0000000000000000e+00  5.2270740393515786e-04 -6.2165416888942157e-04 0.0000000000000000e+00  2.7722376294903532e-02 -2.3798052968681274e-01 0.0000000000000000e+00  1.9477164778439575e-02 2.6909739434228763e-01 0.0000000000000000e+00  -9.8381841070821173e-03 1.5011982558806991e-01 0.0000000000000000e+00  -4.4546660921995678e-03 2.8266933766083263e-01 0.0000000000000000e+00  2.0030379308329199e-03 1.7257209853053448e-01 0.0000000000000000e+00  1.0231716233650637e-02 -6.8961430239386806e-02 0.0000000000000000e+00  -1.9854035096945457e-04 -6.9771151849574664e-02 0.0000000000000000e+00  6.6756920419987088e-03 1.9661242805259893e-01 0.0000000000000000e+00  -6.4413381774597765e-03 1.1966440639545380e-01 0.0000000000000000e+00  4.0531885690030505e-04 -1.7552258728190817e-04 0.0000000000000000e+00  -3.2437510222067607e-03 -1.3080347034145948e-01 0.0000000000000000e+00  -2.4878907111774550e-03 -9.6129766310166869e-04 0.0000000000000000e+00  2.8558808805485310e-04 -1.9726897292203711e-04 0.0000000000000000e+00  2.6688202392989085e-03 -1.3888885444014018e-01 0.0000000000000000e+00  6.4526579345860393e-03 -2.1510503166800440e-01 0.0000000000000000e+00  1.5525263643569811e-02 -2.5937987250518285e-01 0.0000000000000000e+00  4.4286219443630444e-04 -2.6506009330743752e-01 0.0000000000000000e+00  1.2382705494973329e-02 -6.6968985559712854e-02 0.0000000000000000e+00  8.3705661977523816e-03 -2.6269337442381763e-01 0.0000000000000000e+00  -5.9548021075984336e-02 2.9815770981961264e-02 0.0000000000000000e+00  -1.6009442537123348e-02 2.5521642240161979e-01 0.0000000000000000e+00  2.5049090154357001e-03 -2.8169980746412665e-01 0.0000000000000000e+00  4.6787301641185455e-02 2.6926797189059187e-01 0.0000000000000000e+00  1.2139142045997430e-02 -2.8598989240757849e-01 0.0000000000000000e+00  -2.3058317694952082e-01 5.7302097445170667e-02 0.0000000000000000e+00  -4.6971517477371457e-03 8.6689041265016281e-02 0.0000000000000000e+00  -1.2891915236008857e-02 -2.7390609226126972e-01 0.0000000000000000e+00  -1.2250343139818858e-02 2.1227557676595488e-01 0.0000000000000000e+00  -4.5625034879683217e-02 -1.48931241