<?xml version="1.0"?>
<VTKFile type="UnstructuredGrid"  version="0.1"  >
<UnstructuredGrid>
<Piece  NumberOfPoints="4961" NumberOfCells="9546">
<Points>
<DataArray  type="Float64"  NumberOfComponents="3"  format="ascii">0 1.5 0  -0 0.09117947244826481 0  0.0220162612375116 0.1293127555043441 0  0.05279126660105127 0.1634918616050268 0  0.09000000000000007 0.1905255888325765 0  0.1320162612375116 0.2092324335849338 0  0.1770037380811163 0.2187948169810202 0  0.2229962619188838 0.2187948169810201 0  0.2679837387624884 0.2092324335849338 0  0.3100000000000001 0.1905255888325765 0  0.3472087333989489 0.1634918616050267 0  0.3779837387624885 0.1293127555043441 0  0.4009800006813722 0.08948206147667603 0  0.4052662851173224 0.07629023443250138 0  0.4200599930048062 0.1082663100071745 0  0.4475409466961425 0.1444168863592189 0  0.4821507162738997 0.173814689612947 0  0.522270987378618 0.1950851111615262 0  0.5660257807239194 0.2072335697337205 0  0.6113691708029376 0.209692016908736 0  0.6561809510911363 0.2023454984290368 0  0.6983657725469559 0.1855375293336648 0  0.7359511198041838 0.1600540315768036 0  0.7671795437981852 0.1270865851906907 0  0.7895690044779959 0.089875012069959 0  0.7989002782867461 0.1116194513821486 0  0.825485631780658 0.1498156710261111 0  0.8592156240140376 0.1818784194956707 0  0.8987093451417441 0.2064950441012706 0  0.9423499175804944 0.222657737339227 0  0.9883506911670961 0.2297047966493422 0  1.034828388826053 0.2273477145954656 0  1.079880208154309 0.2156829903938285 0  1.121661722375201 0.1951881792237927 0  1.158462391387408 0.1667023410626976 0  1.188775591477674 0.1313916894718022 0  1.211360296672653 0.09070184667606328 0  1.225291886488074 0.04629865962039181 0  1.23 0 0  1.38 0 0  1.384807527838563 0.04574057197990705 0  1.399019999318628 0.08948206147667601 0  1.422016261237512 0.1293127555043441 0  1.452791266601051 0.1634918616050268 0  1.49 0.1905255888325765 0  1.532016261237512 0.2092324335849338 0  1.577003738081116 0.2187948169810202 0  1.622996261918884 0.2187948169810201 0  1.667983738762489 0.2092324335849338 0  1.71 0.1905255888325765 0  1.747208733398949 0.1634918616050267 0  1.763158635297163 0.1457777009465727 0  1.8 0.1732050807568878 0  1.842639353457782 0.1915979024630978 0  1.888371034217905 0.1996616316542537 0  1.934729635533386 0.1969615506024416 0  1.979215953207831 0.1836432213760548 0  2.019431718340557 0.1604246385510087 0  2.053208888623796 0.1285575219373079 0  2.078726528064682 0.08975983604009244 0  2.089496128668151 0.06017060156551748 0  2.099019999318628 0.08948206147667601 0  2.122016261237512 0.1293127555043441 0  2.152791266601051 0.1634918616050268 0  2.19 0.1905255888325765 0  2.232016261237511 0.2092324335849338 0  2.277003738081116 0.2187948169810202 0  2.322996261918884 0.2187948169810201 0  2.367983738762488 0.2092324335849338 0  2.41 0.1905255888325765 0  2.447208733398949 0.1634918616050267 0  2.457084733682728 0.1525234520934048 0  2.4821507162739 0.173814689612947 0  2.522270987378618 0.1950851111615262 0  2.56602578072392 0.2072335697337205 0  2.611369170802938 0.209692016908736 0  2.656180951091136 0.2023454984290368 0  2.698365772546956 0.1855375293336648 0  2.735951119804184 0.1600540315768036 0  2.767179543798185 0.1270865851906907 0  2.790590838130901 0.08817671132765556 0  2.805090316699118 0.04514379244431505 0  2.81 0 0  3 0 0  3 1.5 0  0 0.7956998320486358 0  0.4110904441558352 0.08887894789033324 0  0.7773699356874649 0.1101500221202465 0  1.5 1.5 0  3 0.75 0  0 0.4434396522484503 0  3 0.375 0  0 0.2673095623483576 0  0 0.1792445173983112 0  0 0.135211994923288 0  2.25 1.5 0  0.75 1.5 0  1.807676614587897 0.8837271123414687 0  1.04553857344641 0.8979441530181422 0  2.403437242208115 0.8132876225209357 0  0.5070864579510219 1.00719278150819 0  3 1.125 0  1.338035405010484 0.5883821138073757 0  2.625 1.5 0  0.3818338799394321 0.6099209340690734 0  2.067950237167102 0.5767429460037152 0  1.428016626639016 0.9663701540160734 0  1.875 1.5 0  2.136976695697423 1.114248364898298 0  1.125 1.5 0  0.375 1.5 0  0.7837785056474272 0.5924157926009261 0  2.621900904970652 1.121900904970652 0  0 1.147849916024318 0  1.717071692555337 0.550779009763445 0  1.678619011272733 1.204235418149387 0  0.8184015011321764 1.160011833453945 0  2.690771901920515 0.5625 0  1.191553529739931 1.18494431212041 0  2.361743998733192 0.516240498397431 0  2.727335050325185 0.8509414958930873 0  1.061120194703906 0.6196995992969355 0  0.269244960297408 0.8637990218922467 0  0.7609530458041533 0.8768664729047809 0  0.5625 1.286150286226427 0  0.2788879438654684 1.226607136693913 0  2.077535333020466 0.8486969269297693 0  2.4375 1.312474598220077 0  2.809426100237187 1.309426100237187 0  1.544358239139601 0.7389704993474611 0  1.434454912167138 1.210530519498476 0  2.380335199591509 1.061271835208851 0  1.926191456889599 1.252931474193008 0  0.5486378118088926 0.7757115443742588 0  0.5753328044103648 0.454959652232189 0  1.281333603460298 0.3634530521588742 0  0.9959109141311655 1.308173392725312 0  1.507364216928931 0.4358170942512657 0  1.21812632380771 0.7680504611018459 0  0 0.6195697421485431 0  1.3125 1.5 0  0.2892140007400885 0.4197188740688536 0  1.924109453869066 0.4139433366638808 0  0.9329747065756857 0.4375180073994652 0  2.243231692495831 0.684324343130167 0  2.0625 1.5 0  2.124178136191116 0.3821183579116478 0  1.923364695744858 0.7179848099571996 0  2.233034933769442 1.295537230099697 0  1.961794510294921 1.014032929092127 0  0.9133498533613748 0.7509830595402348 0  0 0.9717748740364769 0  0.1875 1.5 0  0 1.323924958012159 0  1.227107007305785 0.9862124750220198 0  1.616617139708145 0.9194004298184476 0  2.811636610329211 1.039737091854792 0  0.1901803394569171 0.5855957240372172 0  2.511165533602297 0.6467174115519351 0  2.536466024168012 0.9507486861843897 0  0.1866521719860137 1.047526440960541 0  2.74946330463778 0.3751246081287475 0  2.543804048982231 0.4145708923164018 0  0.9375 1.5 0  2.4375 1.5 0  0.5625 1.5 0  3 0.5625 0  1.6875 1.5 0  3 0.1875 0  3 0.9375 0  3 1.3125 0  2.8125 1.5 0  1.010044310702206 1.096645863828023 0  2.623488142128434 1.314011651358178 0  2.229558763998408 0.9540962470011799 0  2.845385950960257 0.65625 0  0.7525337220569124 0.4130199536593896 0  1.10537722367743 0.3921278680533664 0  0.6842290971134891 1.039833940778862 0  0.7386374643770518 1.32083913541365 0  1.553387564684306 1.08522930563603 0  1.788789291239656 1.06235950910253 0  1.559809215736361 1.334301807720895 0  1.750410104758408 0.7205088288478614 0  1.672011031024921 0.3842266692686779 0  1.77867146649739 1.349246747510312 0  1.21875 1.355246746101045 0  0.8723426006985372 1.001666865795386 0  1.380631426145093 0.7466576340788873 0  0.4259246536592668 0.3283409344703117 0  0.3444360723462823 1.008028502358495 0  0.6161474109915657 0.6198433096250735 0  0.4265019066463465 1.151756411601508 0  1.403034104827827 1.367717620859348 0  2.874684993382777 0.28125 0  2.874778249279309 0.46875 0  2.071314369495706 1.334001876948522 0  2.3 0.3730371416193449 0  1.322682484320052 1.105857305698365 0  1.563127563616163 0.5828461597844022 0  2.559040610931566 0.7958017532902765 0  1.213306121383676 0.5002133671656324 0  1.916121887065227 0.5659454196943852 0  2.207677378621353 0.5116761937353096 0  0.1257028237453774 1.235887437018238 0  0.7203062975228639 0.7304636720840537 0  0.3921145397364951 0.7663844669080319 0  2.70905347612285 0.7067207479465436 0  2.87968965213058 0.84375 0  0.1396742765227637 0.3714373577111671 0  0.1209675020841686 0.8837373530425563 0  0.1396318055029159 0.7309656161457982 0  0.4039274761094683 1.336239793581983 0  2.676470777350768 0.9877614171414461 0  0.2098223519481562 1.355491059017463 0  0.6161949108813681 0.9073080762684851 0  0.6728981805985057 1.187471545812503 0  0.4313243650936899 0.473428383024358 0  1.317579957488075 0.8752219089473544 0  1.05247475519209 0.7587740171666131 0  0.9218858728134471 0.6117854803862035 0  2.343741823603972 1.201704901656183 0  2.483180588903391 1.163054990844907 0  1.336494261441537 0.237261632693729 0  2.096334636915305 0.983917300563715 0  2.059942810014369 0.7131710752499992 0  1.940957218750955 0.8535106616369695 0  0.2735884026449029 0.6956028768230409 0  2.3791553829517 0.6794620539851567 0  2.443566922502795 0.3224565874575337 0  2.21140571429892 0.8179437442036444 0  2.863880028189143 1.175018869261394 0  1.212122991296861 0.6341965806889284 0  0.8702381850023826 1.37471255674248 0  0.4252003220264352 0.89843828480276 0  2.714126143737636 1.217200861470203 0  2.34375 1.406237299110039 0  2.71875 1.406237608026668 0  2.903224894283775 1.403224894283775 0  2.53125 1.5 0  1.444637821860123 0.3169971434781329 0  1.307097209138961 1.253815337580837 0  1.806074818262501 0.3310941379078186 0  0.09375 1.5 0  1.96875 1.5 0  1.467196512253796 0.8429542418758076 0  0.7811182225539175 0.2860230046382459 0  0.8880470276332622 0.8755399020562793 0  2.004554624687214 1.142507703833496 0  1.901808674873915 1.376717053991818 0  1.80956117606876 1.192202387775541 0  0.65625 1.5 0  2.256163989601168 1.076312782066936 0  2.35728348455407 0.9340561611988477 0  0.5508073343087652 1.161974855816299 0  1.822201850254356 0.484799098822588 0  0.6415475671733072 0.3394071993736185 0  0.6854011703162045 0.5171310296285601 0  2.010601404748645 0.3128962050875828 0  1.458109478391155 0.6494112449225909 0  1.556659288882675 1.21212759481645 0  2.15625 1.5 0  1.102952541966123 1.010721102324488 0  3 0.09375 0  2.905 0 0  1.698833571793874 0.8302602504158462 0  0.1128136071602732 0.4908067814983783 0  1.375215724596343 0.4593979824254396 0  1.667188501011557 1.033651962891267 0  0.5152717989473731 0.5573202673988191 0  0.4756630816937197 0.6823252715484635 0  2.485944291803511 0.5248037876852512 0  0.609375 1.393075143113214 0  1.657554629504312 0.6506084627130724 0  1.180547956106694 0.2992004577305749 0  1.040994897946075 0.4976964206623483 0  2.883588023402782 0.1625217501240843 0  1.437965738677728 1.09476840787
[...]
<PointData  Vectors="f_60"> 
<DataArray  type="Float64"  Name="f_60"  NumberOfComponents="3" format="ascii">-3.0032847083448651e-04 -4.6147151624304427e-04 0.0000000000000000e+00  -7.1702242527334251e-07 -1.7058732995199701e-06 0.0000000000000000e+00  -2.2320914970484026e-06 -4.3660759976293578e-06 0.0000000000000000e+00  5.3143785697189845e-04 2.4248366796824597e-04 0.0000000000000000e+00  5.8292798900752649e-04 9.4472229256417184e-04 0.0000000000000000e+00  -8.2547671206321580e-04 7.4198884140476407e-04 0.0000000000000000e+00  -1.3742193130503980e-04 9.7894191088899280e-04 0.0000000000000000e+00  -1.6172767296777343e-04 9.2130718063811884e-04 0.0000000000000000e+00  -1.7980360301311562e-04 3.9486324530039514e-04 0.0000000000000000e+00  1.0232782915356928e-03 2.6919158934839913e-04 0.0000000000000000e+00  -5.7140094511432254e-04 1.1932551255285858e-03 0.0000000000000000e+00  -3.9046443111566189e-05 6.0568031007978459e-04 0.0000000000000000e+00  -3.7855625319774891e-06 -5.4749917336780309e-05 0.0000000000000000e+00  -3.7741416148779760e-05 6.4343792051346982e-06 0.0000000000000000e+00  2.9297447597694009e-04 2.8644453917081423e-04 0.0000000000000000e+00  3.5577222655596117e-05 4.6998136521146026e-04 0.0000000000000000e+00  -2.7610037555801057e-04 5.3169766668290249e-04 0.0000000000000000e+00  7.2154173523889442e-04 1.1080329684198488e-03 0.0000000000000000e+00  5.8455969630161287e-05 9.7462401709561941e-04 0.0000000000000000e+00  2.2247802626527004e-04 6.4155449165704702e-04 0.0000000000000000e+00  4.8587412922283545e-05 8.8706412504964709e-04 0.0000000000000000e+00  -4.5339494591647143e-04 9.7978395987268797e-04 0.0000000000000000e+00  -2.6618682888006258e-04 6.7729745884914736e-04 0.0000000000000000e+00  -1.2910038325575170e-04 3.1663920081264615e-04 0.0000000000000000e+00  6.0128619876107093e-05 2.9698847558374076e-05 0.0000000000000000e+00  -1.0701327070892891e-04 8.0791662821041305e-05 0.0000000000000000e+00  2.1637667333509889e-04 7.6571340077352809e-04 0.0000000000000000e+00  8.0832301759542133e-04 1.2940071419371491e-03 0.0000000000000000e+00  -7.8727950317783197e-04 8.0574309645054280e-04 0.0000000000000000e+00  3.2925853827826964e-04 7.0896192282788359e-04 0.0000000000000000e+00  1.6756451189390309e-04 8.0158725372167267e-04 0.0000000000000000e+00  -2.3474859339202506e-04 8.6765166340705563e-04 0.0000000000000000e+00  1.5351340968883400e-04 9.0065174856344466e-04 0.0000000000000000e+00  -3.6903321782154607e-04 1.0250673150889421e-03 0.0000000000000000e+00  4.8716508499189575e-04 -2.1610654572910558e-04 0.0000000000000000e+00  7.5859455017679542e-04 -3.1094491191693152e-04 0.0000000000000000e+00  -2.9402408759559477e-04 1.6263123674893113e-03 0.0000000000000000e+00  2.7375485289630054e-04 1.2967312764138618e-03 0.0000000000000000e+00  4.0442968052043816e-04 1.5323562400026120e-04 0.0000000000000000e+00  2.2161869023992560e-04 1.4374777386466810e-04 0.0000000000000000e+00  1.4032999503379599e-04 4.6405191603716793e-04 0.0000000000000000e+00  -6.2664575486902769e-05 4.9937941453795571e-04 0.0000000000000000e+00  -2.2796391217212313e-04 4.8010066545823394e-04 0.0000000000000000e+00  2.7811125375666693e-04 1.1360306829403903e-03 0.0000000000000000e+00  -2.0869340242393633e-04 8.5338746338350273e-04 0.0000000000000000e+00  1.1592704174331432e-04 5.7579285972532673e-04 0.0000000000000000e+00  3.8121569468139151e-05 9.9752574777175747e-04 0.0000000000000000e+00  -3.8231383908976583e-04 1.0479154359569667e-03 0.0000000000000000e+00  3.9893881685094983e-04 6.8388549511755174e-04 0.0000000000000000e+00  2.5631377677568776e-04 7.0352060776949447e-04 0.0000000000000000e+00  -5.1553712938674236e-04 2.4276575989448922e-04 0.0000000000000000e+00  -3.7969522866906729e-04 1.1101668385896560e-04 0.0000000000000000e+00  -4.1302189422170251e-04 3.6415381668135702e-04 0.0000000000000000e+00  6.0155372983181695e-04 5.2205657372663544e-04 0.0000000000000000e+00  4.7899260730940273e-05 9.8365788579949189e-04 0.0000000000000000e+00  3.8308404464602338e-04 8.7984619224021278e-04 0.0000000000000000e+00  5.8583516625303146e-04 6.3215324028889424e-04 0.0000000000000000e+00  -5.7478843868774912e-04 7.4654406601891681e-04 0.0000000000000000e+00  -3.7570316168301519e-04 8.6526580872684308e-05 0.0000000000000000e+00  -1.9657875664103519e-05 -9.3929872521297032e-06 0.0000000000000000e+00  1.6605280169531415e-05 -1.3723870302080896e-05 0.0000000000000000e+00  -6.3190690947325261e-06 3.2780495575079970e-05 0.0000000000000000e+00  -1.0687664918369797e-04 -3.8925905210578279e-05 0.0000000000000000e+00  3.9911844519708678e-04 5.0476535540548457e-04 0.0000000000000000e+00  3.9219207697355657e-04 9.9772125685027436e-04 0.0000000000000000e+00  1.3534753822226179e-05 8.4829397601726979e-04 0.0000000000000000e+00  1.0110135727065346e-04 8.3337615930259025e-04 0.0000000000000000e+00  -2.8812834149006611e-04 7.5510809538821089e-04 0.0000000000000000e+00  4.8767677584185293e-04 4.4834226020029963e-04 0.0000000000000000e+00  3.2021297035390655e-04 6.0403853696953393e-04 0.0000000000000000e+00  4.3195326928277669e-04 1.5398347507012390e-04 0.0000000000000000e+00  3.8935345707166670e-04 5.5715099096996259e-05 0.0000000000000000e+00  5.8670955109414974e-04 2.9616654290330857e-04 0.0000000000000000e+00  1.3574961689038615e-03 7.6994866222007967e-04 0.0000000000000000e+00  1.7039987985050548e-03 7.3553355782100577e-04 0.0000000000000000e+00  5.0853555389686392e-05 4.2947624268376477e-04 0.0000000000000000e+00  1.6348023162481612e-04 8.3337169442949032e-04 0.0000000000000000e+00  -3.8735413808100180e-05 -5.2540868611677396e-04 0.0000000000000000e+00  9.0711128053236724e-04 -9.5070499505385238e-04 0.0000000000000000e+00  8.4248236956583201e-04 -8.1770335002843118e-04 0.0000000000000000e+00  -1.7321096611170017e-04 -1.2864299556414771e-06 0.0000000000000000e+00  2.7385230518120219e-04 -4.0952024742156828e-04 0.0000000000000000e+00  1.0717920092382829e-04 -2.6212671054227731e-04 0.0000000000000000e+00  -8.7203621299197891e-03 -1.2708790680386773e-03 0.0000000000000000e+00  6.9574540330462348e-05 -9.8587112996615669e-04 0.0000000000000000e+00  3.3322440504247734e-06 -1.8218391440165821e-05 0.0000000000000000e+00  -1.5778118521731475e-05 -2.3224552744463966e-05 0.0000000000000000e+00  -1.5251928733080934e-04 5.2113598755030285e-05 0.0000000000000000e+00  3.4014504249464678e-04 -7.5843498939790410e-04 0.0000000000000000e+00  -8.8589537094488997e-04 -3.3729971761095780e-04 0.0000000000000000e+00  4.8088540834244561e-06 3.5420832289750184e-05 0.0000000000000000e+00  -3.7852705685975084e-03 -1.7183051660683878e-03 0.0000000000000000e+00  6.5277576710351447e-04 1.8788387522055614e-03 0.0000000000000000e+00  4.5216461364365956e-04 4.7585149967342797e-04 0.0000000000000000e+00  5.9731312639570329e-06 -5.6608951901922706e-06 0.0000000000000000e+00  -2.4560192422982692e-04 -7.3630861381490285e-04 0.0000000000000000e+00  2.0980430192741922e-04 -2.4789407440071462e-04 0.0000000000000000e+00  2.7187775309029213e-02 2.5530895893605527e+00 0.0000000000000000e+00  2.9161912532319947e-02 -2.3631508816892617e+00 0.0000000000000000e+00  1.1097750324552527e-01 3.1223582396760841e+00 0.0000000000000000e+00  -1.8255312194607826e-02 -8.6749214391950069e-01 0.0000000000000000e+00  1.5339657924289482e-03 9.1998070565083392e-04 0.0000000000000000e+00  1.2656770140162948e-01 -2.2099776459030087e+00 0.0000000000000000e+00  1.5982376824663165e-03 -8.4786306704487391e-04 0.0000000000000000e+00  9.5645084815803291e-02 -2.2180661873530536e-01 0.0000000000000000e+00  -6.1413542168579173e-02 2.2346284694363869e+00 0.0000000000000000e+00  1.5222304328303879e-03 2.1441544711482116e-01 0.0000000000000000e+00  2.2525235243805880e-04 -1.0077521595057953e-03 0.0000000000000000e+00  1.6006254164475048e-01 2.2148588400023810e+00 0.0000000000000000e+00  -2.5630033414640005e-04 -5.5801571559457917e-04 0.0000000000000000e+00  -1.2369356670629563e-04 -7.1385912789437202e-04 0.0000000000000000e+00  8.4041640397490153e-02 -1.9016384977877265e+00 0.0000000000000000e+00  6.2064446369326598e-01 -1.9378484682963898e-01 0.0000000000000000e+00  -9.3329128426474659e-06 -4.5502934320683876e-05 0.0000000000000000e+00  1.3817899704315873e-02 -3.1781001787794783e-01 0.0000000000000000e+00  -1.4696947847718213e-02 -1.8780426360976932e+00 0.0000000000000000e+00  -9.6488291149150154e-02 -1.7641038614133342e-01 0.0000000000000000e+00  -4.0674537176299241e-01 3.4504068242745660e+00 0.0000000000000000e+00  -1.2323339001492431e-01 2.4026935474490614e+00 0.0000000000000000e+00  -2.7209576411163555e-01 2.4626289208401371e+00 0.0000000000000000e+00  2.9282880680094353e-01 3.5326312760330669e+00 0.0000000000000000e+00  8.9923347959544875e-02 -2.3309973776906969e+00 0.0000000000000000e+00  3.1493365073765691e-03 1.8355189331908133e+00 0.0000000000000000e+00  3.1529534230461530e-02 -2.3453065808386664e+00 0.0000000000000000e+00  -1.9402594892478697e-01 1.7982623790015431e+00 0.0000000000000000e+00  -1.1844641269757104e-01 2.1665413512686724e+00 0.0000000000000000e+00  6.7175425604745348e-02 2.4636512105035133e+00 0.0000000000000000e+00  6.0248329498988074e-01 2.5411897307574098e+00 0.0000000000000000e+00  1.6534480530873172e+00 1.6316706214145507e+00 0.0000000000000000e+00  3.2123096601756010e-02 1.5611136906910767e+00 0.0000000000000000e+00  -8.9726302827005444e-02 6.4067055382185312e-01 0.0000000000000000e+00  3.6510867664287233e-01 2.6143762832344648e+00 0.0000000000000000e+00  5.3525998200088049e-02 -1.9700274202525767e+00 0.0000000000000000e+00  3.7961504659629559e-02 1.0360627079259916e+00 0.0000000000000000e+00  1.1987407584476151e-01 1.8935676533272332e+00 0.0000000000000000e+00  2.2770566469334316e-01 1.1696458780166097e-01 0.0000000000000000e+00  -1.0842201311137270e-01 -1.1878712380838299e+00 0.0000000000000000e+00  9.6900717392619171e-02 2.3304393567593040e+00 0.0000000000000000e+00  2.8919304923993666e-02 2.3025509519883900e+00 0.0000000000000000e+00  -3.4079428561084914e-06 -2.2093465411078115e-05 0.0000000000000000e+00  -6.9337758660949005e-04 -2.4066459412611446e-04 0.0000000000000000e+00  1.3595874168979782e-01 2.2620777498275189e+00 0.0000000000000000e+00  -1.1590647637226083e-01 -1.9260344385003461e+00 0.0000000000000000e+00  7.7495036608248108e-02 1.9365550286419286e+00 0.0000000000000000e+00  -1.5268918521884348e-01 -1.8623344223281919e+00 0.0000000000000000e+00  -1.0224927548002100e-03 -9.8242836218314137e-04 0.0000000000000000e+00  -2.1606816975661847e-01 2.0508858643032495e+00 0.0000000000000000e+00  -2.5769008256456234e-02 -1.7927658570378264e+00 0.0000000000000000e+00  2.6351673879782822e-01 -1.8822973513495449e+00 0.0000000000000000e+00  5.3551652738471144e-02 -2.1241130195256903e+00 0.0000000000000000e+00  2.8797750632792118e-02 2.3311611689220952e+00 0.0000000000000000e+00  1.4178247101042060e-05 -1.9916764529460739e-05 0.0000000000000000e+00  4.9355642200835592e-04 -1.1843898359551075e-03 0.0000000000000000e+00  8.3232005285689765e-05 -4.3155656429698825e-04 0.0000000000000000e+00  -3.7497658549715783e-02 2.0491343210615898e+00 0.0000000000000000e+00  2.1141829079463447e-02 -1.7091647793400426e+00 0.0000000000000000e+00  5.8770101324870694e-01 7.9625669535282129e-01 0.0000000000000000e+00  8.3836163546154044e-02 -1.7284126780605831e+00 0.0000000000000000e+00  -3.9443191355534807e-01 -9.9773095825097691e-01 0.0000000000000000e+00  1.3239166277396269e-01 -1.2446222418401414e+00 0.0000000000000000e+00  -9.7122219846632676e-03 -1.7714052982209396e+00 0.0000000000000000e+00  -1.4964745018333008e+00 4.2363679988173458e-01 0.0000000000000000e+00  -8.4397222669360183e-01 -1.2513570432099377e+00 0.0000000000000000e+00  5.1420398637637432e-04 -7.0297872077393245e-04 0.0000000000000000e+00  -3.2872474373987418e-04 -7.1627223029187943e-04 0.0000000000000000e+00  -4.8355671719919018e-04 -7.9474942987803440e-04 0.0000000000000000e+00  -2.6162242489587554e-03 -3.6570018011194321e-04 0.0000000000000000e+00  5.1547824183526903e-04 -7.7201602311276088e-04 0.0000000000000000e+00  -1.9840684140717624e-03 1.2332194148826634e-03 0.0000000000000000e+00  7.6864928814741743e-04 -7.2803071462103922e-05 0.0000000000000000e+00  -5.6101625302910864e-04 -4.8944275409746110e-04 0.0000000000000000e+00  3.3820422053128601e-03 -9.6869977014394347e-04 0.0000000000000000e+00  -4.4651966349355941e-02 -1.6670371465735110e+00 0.0000000000000000e+00  8.9106359402055513e-01 -9.1656864605590938e-01 0.0000000000000000e+00  6.6164110427615108e-02 -1.6391739591844043e+00 0.0000000000000000e+00  -5.9899647580539039e-01 -4.1442735610191439e-01 0.0000000000000000e+00  8.2279823279789194e-02 -2.3935046310693244e+00 0.0000000000000000e+00  1.9849225737710391e-01 -1.0692467071690390e+00 0.0000000000000000e+00  -3.5493139769949791e-02 -5.3565175195242087e-01 0.0000000000000000e+00  -1.3356164704902401e-01 -2.3714231185373955e+00 0.0000000000000000e+00  -3.4283316282997391e-02 1.0934782229246229e+00 0.0000000000000000e+00  1.3673963914884091e-02 2.4863052671819719e+00 0.0000000000000000e+00  -1.5730492827775149e-02 6.4499030003356927e-01 0.0000000000000000e+00  2.5177395892759826e-02 1.3277541010247325e+00 0.0000000000000000e+00  2.9730596258253777e-02 -2.0318516358837644e+00 0.0000000000000000e+00  -1.2483478307360003e-01 2.1131969431130240e+00 0.0000000000000000e+00  -9.7722841158412663e-02 1.9583762653626628e+00 0.0000000000000000e+00  -5.4584701410361862e-02 2.0348813510359074e+00 0.0000000000000000e+00  7.5099189183851986e-02 -1.9148201290903366e+00 0.0000000000000000e+00  1.2622445579552707e-01 -1.8653869221217656e+00 0.0000000000000000e+00  -2.9478423244978326e-02 1.3511947629086867e+00 0.0000000000000000e+00  6.7030684122450376e-02 2.2581268369412690e+00 0.0000000000000000e+00  -4.7029962678907820e-02 -2.1885911692497824e+00 0.0000000000000000e+00  -3.3253432303693620e-01 -6.8058704100837275e-01 0.0000000000000000e+00  -1.3340955997446304e+00 2.1879871848436081e+00 0.0000000000000000e+00  -1.0238003152147448e+00 1.2558413287998051e+00 0.0000000000000000e+00  2.6884585712122402e-02 1.9456382066727236e+00 0.0000000000000000e+00  -2.9666396910282750e-01 -3.3452482256227950e-01 0.0000000000000000e+00  -2.8964678784560917e-02 -2.0231416744348900e+00 0.0000000000000000e+00  5.0262721561265794e-02 7.1366411478820868e-01 0.0000000000000000e+00  -1.3990690976987902e-01 -1.2804162979713616e+00 0.0000000000000000e+00  8.0102111004084459e-02 2.4277913963582716e+00 0.0000000000000000e+00  -6.4139716795315785e-02 -1.6502417692919655e+00 0.0000000000000000e+00  -2.4353677300838347e-01 -1.3422850804502418e+00 0.0000000000000000e+00  -1.7282411955211428e-02 -2.1582086173553190e+00 0.0000000000000000e+00  6.5962463572435862e-02 -1.9104006890321485e+00 0.0000000000000000e+00  5.6732686737649154e-02 -8.1027232621603917e-01 0.0000000000000000e+00  -5.9574826665392405e-02 3.5719461450350951e+00 0.0000000000000000e+00  -4.0258739634940158e-02 -2.4658109651902960e-02 0.0000000000000000e+00  1.2241559922203783e-01 -2.1486446774704651e+00 0.0000000000000000e+00  2.1718579695355043e-02 -2.0577750984792362e+00 0.0000000000000000e+00  4.4339775172862354e-02 -2.4161599925844004e+00 0.0000000000000000e+00  -8.4966280371473649e-02 -1.4954040818676115e+00 0.0000000000000000e+00  5.7451119424899499e-01 3.0144331618639577e+00 0.0000000000000000e+00  -2.7611957078759630e-01 -4.6245841242532448e-01 0.0000000000000000e+00  -1.7741168886159238e-02 2.2392645592543903e+00 0.0000000000000000e+00  -1.0038094083316602e-01 -7.0693309393317819e-02 0.0000000000000000e+00  1.6646840597190238e-01 -2.1416804633720328e+00 0.0000000000000000e+00  3.7435005052327643e-02 -1.7907282447339092e+00 0.0000000000000000e+00  6.5646715616563836e-02 -2.3733918291555165e+00 0.0000000000000000e+00  6.8587536748130243e-02 2.2107045553228821e+00 0.0000000000000000e+00  3.8417517333330042e-01 7.8386501745245341e-01 0.0000000000000000e+00  4.9702192448107879e-01 1.0269194082685551e+00 0.0000000000000000e+00  1.7992020770012279e-01 -2.0123823390390805e+00 0.0000000000000000e+00  1.2088606737889977e-01 2.7346633559253615e+00 0.0000000000000000e+00  1.9435593423961688e-03 1.9515489821998089e+00 0.0000000000000000e+00  1.0344271712409195e-02 -2.0970724637352003e+00 0.0000000000000000e+00  4.0531178718174042e-02 1.9427558522519233e+00 0.0000000000000000e+00  -5.7894008871962638e-02 2.8992225860698992e+00 0.0000000000000000e+00  -8.2553465218244404e-01 6.0168883463994927e-01 0.0000000000000000e+00  -3.1966764780883970e-02 -1.1543689436017863e+00 0.0000000000000000e+00  9.3470027864671390e-01 -5.0313974519967630e-01 0.0000000000000000e+00  5.8411808698987579e-02 2.4080224991369450e+00 0.0000000000000000e+00  -3.3799126961924836e-01 1.8648136777761435e+00 0.0000000000000000e+00  3.2182580509557066e-02 -2.1084903159013755e+00 0.0000000000000000e+00  1.2006824799332640e+00 3.3354408902341945e+00 0.0000000000000000e+00  -1.0683025195152542e-01 4.9858278618162299e-01 0.0000000000000000e+00  1.1257852546620015e+00 2.1385147235879551e+00 0.0000000000000000e+00  2.3417881027035570e+00 -1.0241272773329462e+00 0.0000000000000000e+00  -2.0649443034540454e-04 -1.1467461782491476e-03 0.0000000000000000e+00  1.5273917035023324e-01 5.6367954736840098e-01 0.0000000000000000e+00  -8.5205815775128743e-02 -1.5903840115931860e+00 0.0000000000000000e+00  -4.2677272185999711e-02 2.3399126877996164e+00 0.0000000000000000e+00  -4.1898781326171888e-04 -6.8232774031901902e-04 0.0000000000000000e+00  4.3533896611110237e-04 -2.8767464484920195e-04 0.0000000000000000e+00  2.1067657685519138e-02 1.8895599460194925e+00 0.0000000000000000e+00  2.9900366769853570e-01 -1.6889775771038931e+00 0.0000000000000000e+00  -1.1359764668608979e-02 2.3223405053900938e+00 0.0000000000000000e+00  9.3533041905928163e-02 -9.2294983485303750e-01 0.0000000000000000e+00  2.1590831408078937e-01 -1.0445747353354511e+00 0.0000000000000000e+00  -8.0150168311916847e-03 2.4920425393762335e+00 0.0000000000000000e+00  3.3629787346734993e-04 -7.7290063666827320e-04 0.0000000000000000e+00  1.6993508917514924e-01 -1.9985338540148689e+00 0.0000000000000000e+00  2.1271271847869258e-01 1.9676035872049480e+00 0.0000000000000000e+00  -1.0722474305444299e-01 1.3282802656729624e+00 0.0000000000000000e+00  -2.7911933353840537e-02 2.2178810892198597e+00 0.0000000000000000e+00  4.2867872077187445e-02 1.4639087973091189e+00 0.0000000000000000e+00  8.6845256552966960e-02 -4.1218181871338777e-01 0.0000000000000000e+00  4.7688903250572255e-02 -3.9461682649729307e-01 0.0000000000000000e+00  7.0322181298246078e-02 1.4843340209898228e+00 0.0000000000000000e+00  -6.7311781228833745e-02 8.6697824779336774e-01 0.0000000000000000e+00  7.5898105857007299e-04 -9.4785714596596151e-04 0.0000000000000000e+00  -1.8052520642937692e-02 -1.0021796254409525e+00 0.0000000000000000e+00  -6.1768774053880650e-03 -1.3715379791319087e-03 0.0000000000000000e+00  -5.6196340450698559e-04 5.9485818169686966e-05 0.0000000000000000e+00  3.0597131757364251e-02 -1.1475753819146362e+00 0.0000000000000000e+00  8.5166981240568110e-02 -1.6404556133309507e+00 0.0000000000000000e+00  1.8135234830372829e-01 -2.1198623300501942e+00 0.0000000000000000e+00  1.6774950568636007e-02 -2.1404834460266975e+00 0.0000000000000000e+00  1.2349559558069798e-01 -6.9620637886146408e-01 0.0000000000000000e+00  9.4957246143448706e-02 -2.1561873754041265e+00 0.0000000000000000e+00  -5.6456975933186093e-01 -4.6653012543842010e-01 0.0000000000000000e+00  -8.3072149141580454e-02 1.8812684293611350e+00 0.0000000000000000e+00  3.1455496373313185e-02 -2.2631140791016762e+00 0.0000000000000000e+00  5.0121889883835269e-01 1.9602917969289855e+00 0.0000000000000000e+00  1.0263601896768389e-01 -2.2899813611354252e+00 0.0000000000000000e+00  -5.3311921745291180e-01 2.2174033701647970e+00 0.0000000000000000e+00  -4.1795080780469056e-02 7.5952942577393123e-01 0.0000000000000000e+00  -8.0484661430551302e-02 -2.1275098435279838e+00 0.0000000000000000e+00  -1.2516664435770153e-01 1.5810018394429710e+00 0.0000000000000000e+00  -4.2207534660151957e-01 -8.686893028465894