<?xml version="1.0"?>
<VTKFile type="UnstructuredGrid"  version="0.1"  >
<UnstructuredGrid>
<Piece  NumberOfPoints="4961" NumberOfCells="9546">
<Points>
<DataArray  type="Float64"  NumberOfComponents="3"  format="ascii">0 1.5 0  -0 0.09117947244826481 0  0.0220162612375116 0.1293127555043441 0  0.05279126660105127 0.1634918616050268 0  0.09000000000000007 0.1905255888325765 0  0.1320162612375116 0.2092324335849338 0  0.1770037380811163 0.2187948169810202 0  0.2229962619188838 0.2187948169810201 0  0.2679837387624884 0.2092324335849338 0  0.3100000000000001 0.1905255888325765 0  0.3472087333989489 0.1634918616050267 0  0.3779837387624885 0.1293127555043441 0  0.4009800006813722 0.08948206147667603 0  0.4052662851173224 0.07629023443250138 0  0.4200599930048062 0.1082663100071745 0  0.4475409466961425 0.1444168863592189 0  0.4821507162738997 0.173814689612947 0  0.522270987378618 0.1950851111615262 0  0.5660257807239194 0.2072335697337205 0  0.6113691708029376 0.209692016908736 0  0.6561809510911363 0.2023454984290368 0  0.6983657725469559 0.1855375293336648 0  0.7359511198041838 0.1600540315768036 0  0.7671795437981852 0.1270865851906907 0  0.7895690044779959 0.089875012069959 0  0.7989002782867461 0.1116194513821486 0  0.825485631780658 0.1498156710261111 0  0.8592156240140376 0.1818784194956707 0  0.8987093451417441 0.2064950441012706 0  0.9423499175804944 0.222657737339227 0  0.9883506911670961 0.2297047966493422 0  1.034828388826053 0.2273477145954656 0  1.079880208154309 0.2156829903938285 0  1.121661722375201 0.1951881792237927 0  1.158462391387408 0.1667023410626976 0  1.188775591477674 0.1313916894718022 0  1.211360296672653 0.09070184667606328 0  1.225291886488074 0.04629865962039181 0  1.23 0 0  1.38 0 0  1.384807527838563 0.04574057197990705 0  1.399019999318628 0.08948206147667601 0  1.422016261237512 0.1293127555043441 0  1.452791266601051 0.1634918616050268 0  1.49 0.1905255888325765 0  1.532016261237512 0.2092324335849338 0  1.577003738081116 0.2187948169810202 0  1.622996261918884 0.2187948169810201 0  1.667983738762489 0.2092324335849338 0  1.71 0.1905255888325765 0  1.747208733398949 0.1634918616050267 0  1.763158635297163 0.1457777009465727 0  1.8 0.1732050807568878 0  1.842639353457782 0.1915979024630978 0  1.888371034217905 0.1996616316542537 0  1.934729635533386 0.1969615506024416 0  1.979215953207831 0.1836432213760548 0  2.019431718340557 0.1604246385510087 0  2.053208888623796 0.1285575219373079 0  2.078726528064682 0.08975983604009244 0  2.089496128668151 0.06017060156551748 0  2.099019999318628 0.08948206147667601 0  2.122016261237512 0.1293127555043441 0  2.152791266601051 0.1634918616050268 0  2.19 0.1905255888325765 0  2.232016261237511 0.2092324335849338 0  2.277003738081116 0.2187948169810202 0  2.322996261918884 0.2187948169810201 0  2.367983738762488 0.2092324335849338 0  2.41 0.1905255888325765 0  2.447208733398949 0.1634918616050267 0  2.457084733682728 0.1525234520934048 0  2.4821507162739 0.173814689612947 0  2.522270987378618 0.1950851111615262 0  2.56602578072392 0.2072335697337205 0  2.611369170802938 0.209692016908736 0  2.656180951091136 0.2023454984290368 0  2.698365772546956 0.1855375293336648 0  2.735951119804184 0.1600540315768036 0  2.767179543798185 0.1270865851906907 0  2.790590838130901 0.08817671132765556 0  2.805090316699118 0.04514379244431505 0  2.81 0 0  3 0 0  3 1.5 0  0 0.7956998320486358 0  0.4110904441558352 0.08887894789033324 0  0.7773699356874649 0.1101500221202465 0  1.5 1.5 0  3 0.75 0  0 0.4434396522484503 0  3 0.375 0  0 0.2673095623483576 0  0 0.1792445173983112 0  0 0.135211994923288 0  2.25 1.5 0  0.75 1.5 0  1.807676614587897 0.8837271123414687 0  1.04553857344641 0.8979441530181422 0  2.403437242208115 0.8132876225209357 0  0.5070864579510219 1.00719278150819 0  3 1.125 0  1.338035405010484 0.5883821138073757 0  2.625 1.5 0  0.3818338799394321 0.6099209340690734 0  2.067950237167102 0.5767429460037152 0  1.428016626639016 0.9663701540160734 0  1.875 1.5 0  2.136976695697423 1.114248364898298 0  1.125 1.5 0  0.375 1.5 0  0.7837785056474272 0.5924157926009261 0  2.621900904970652 1.121900904970652 0  0 1.147849916024318 0  1.717071692555337 0.550779009763445 0  1.678619011272733 1.204235418149387 0  0.8184015011321764 1.160011833453945 0  2.690771901920515 0.5625 0  1.191553529739931 1.18494431212041 0  2.361743998733192 0.516240498397431 0  2.727335050325185 0.8509414958930873 0  1.061120194703906 0.6196995992969355 0  0.269244960297408 0.8637990218922467 0  0.7609530458041533 0.8768664729047809 0  0.5625 1.286150286226427 0  0.2788879438654684 1.226607136693913 0  2.077535333020466 0.8486969269297693 0  2.4375 1.312474598220077 0  2.809426100237187 1.309426100237187 0  1.544358239139601 0.7389704993474611 0  1.434454912167138 1.210530519498476 0  2.380335199591509 1.061271835208851 0  1.926191456889599 1.252931474193008 0  0.5486378118088926 0.7757115443742588 0  0.5753328044103648 0.454959652232189 0  1.281333603460298 0.3634530521588742 0  0.9959109141311655 1.308173392725312 0  1.507364216928931 0.4358170942512657 0  1.21812632380771 0.7680504611018459 0  0 0.6195697421485431 0  1.3125 1.5 0  0.2892140007400885 0.4197188740688536 0  1.924109453869066 0.4139433366638808 0  0.9329747065756857 0.4375180073994652 0  2.243231692495831 0.684324343130167 0  2.0625 1.5 0  2.124178136191116 0.3821183579116478 0  1.923364695744858 0.7179848099571996 0  2.233034933769442 1.295537230099697 0  1.961794510294921 1.014032929092127 0  0.9133498533613748 0.7509830595402348 0  0 0.9717748740364769 0  0.1875 1.5 0  0 1.323924958012159 0  1.227107007305785 0.9862124750220198 0  1.616617139708145 0.9194004298184476 0  2.811636610329211 1.039737091854792 0  0.1901803394569171 0.5855957240372172 0  2.511165533602297 0.6467174115519351 0  2.536466024168012 0.9507486861843897 0  0.1866521719860137 1.047526440960541 0  2.74946330463778 0.3751246081287475 0  2.543804048982231 0.4145708923164018 0  0.9375 1.5 0  2.4375 1.5 0  0.5625 1.5 0  3 0.5625 0  1.6875 1.5 0  3 0.1875 0  3 0.9375 0  3 1.3125 0  2.8125 1.5 0  1.010044310702206 1.096645863828023 0  2.623488142128434 1.314011651358178 0  2.229558763998408 0.9540962470011799 0  2.845385950960257 0.65625 0  0.7525337220569124 0.4130199536593896 0  1.10537722367743 0.3921278680533664 0  0.6842290971134891 1.039833940778862 0  0.7386374643770518 1.32083913541365 0  1.553387564684306 1.08522930563603 0  1.788789291239656 1.06235950910253 0  1.559809215736361 1.334301807720895 0  1.750410104758408 0.7205088288478614 0  1.672011031024921 0.3842266692686779 0  1.77867146649739 1.349246747510312 0  1.21875 1.355246746101045 0  0.8723426006985372 1.001666865795386 0  1.380631426145093 0.7466576340788873 0  0.4259246536592668 0.3283409344703117 0  0.3444360723462823 1.008028502358495 0  0.6161474109915657 0.6198433096250735 0  0.4265019066463465 1.151756411601508 0  1.403034104827827 1.367717620859348 0  2.874684993382777 0.28125 0  2.874778249279309 0.46875 0  2.071314369495706 1.334001876948522 0  2.3 0.3730371416193449 0  1.322682484320052 1.105857305698365 0  1.563127563616163 0.5828461597844022 0  2.559040610931566 0.7958017532902765 0  1.213306121383676 0.5002133671656324 0  1.916121887065227 0.5659454196943852 0  2.207677378621353 0.5116761937353096 0  0.1257028237453774 1.235887437018238 0  0.7203062975228639 0.7304636720840537 0  0.3921145397364951 0.7663844669080319 0  2.70905347612285 0.7067207479465436 0  2.87968965213058 0.84375 0  0.1396742765227637 0.3714373577111671 0  0.1209675020841686 0.8837373530425563 0  0.1396318055029159 0.7309656161457982 0  0.4039274761094683 1.336239793581983 0  2.676470777350768 0.9877614171414461 0  0.2098223519481562 1.355491059017463 0  0.6161949108813681 0.9073080762684851 0  0.6728981805985057 1.187471545812503 0  0.4313243650936899 0.473428383024358 0  1.317579957488075 0.8752219089473544 0  1.05247475519209 0.7587740171666131 0  0.9218858728134471 0.6117854803862035 0  2.343741823603972 1.201704901656183 0  2.483180588903391 1.163054990844907 0  1.336494261441537 0.237261632693729 0  2.096334636915305 0.983917300563715 0  2.059942810014369 0.7131710752499992 0  1.940957218750955 0.8535106616369695 0  0.2735884026449029 0.6956028768230409 0  2.3791553829517 0.6794620539851567 0  2.443566922502795 0.3224565874575337 0  2.21140571429892 0.8179437442036444 0  2.863880028189143 1.175018869261394 0  1.212122991296861 0.6341965806889284 0  0.8702381850023826 1.37471255674248 0  0.4252003220264352 0.89843828480276 0  2.714126143737636 1.217200861470203 0  2.34375 1.406237299110039 0  2.71875 1.406237608026668 0  2.903224894283775 1.403224894283775 0  2.53125 1.5 0  1.444637821860123 0.3169971434781329 0  1.307097209138961 1.253815337580837 0  1.806074818262501 0.3310941379078186 0  0.09375 1.5 0  1.96875 1.5 0  1.467196512253796 0.8429542418758076 0  0.7811182225539175 0.2860230046382459 0  0.8880470276332622 0.8755399020562793 0  2.004554624687214 1.142507703833496 0  1.901808674873915 1.376717053991818 0  1.80956117606876 1.192202387775541 0  0.65625 1.5 0  2.256163989601168 1.076312782066936 0  2.35728348455407 0.9340561611988477 0  0.5508073343087652 1.161974855816299 0  1.822201850254356 0.484799098822588 0  0.6415475671733072 0.3394071993736185 0  0.6854011703162045 0.5171310296285601 0  2.010601404748645 0.3128962050875828 0  1.458109478391155 0.6494112449225909 0  1.556659288882675 1.21212759481645 0  2.15625 1.5 0  1.102952541966123 1.010721102324488 0  3 0.09375 0  2.905 0 0  1.698833571793874 0.8302602504158462 0  0.1128136071602732 0.4908067814983783 0  1.375215724596343 0.4593979824254396 0  1.667188501011557 1.033651962891267 0  0.5152717989473731 0.5573202673988191 0  0.4756630816937197 0.6823252715484635 0  2.485944291803511 0.5248037876852512 0  0.609375 1.393075143113214 0  1.657554629504312 0.6506084627130724 0  1.180547956106694 0.2992004577305749 0  1.040994897946075 0.4976964206623483 0  2.883588023402782 0.1625217501240843 0  1.437965738677728 1.09476840787
[...]
<PointData  Vectors="f_60"> 
<DataArray  type="Float64"  Name="f_60"  NumberOfComponents="3" format="ascii">-1.0789268575109206e-04 -6.3410983928623426e-04 0.0000000000000000e+00  -2.1596183704115860e-06 4.1329927219285127e-06 0.0000000000000000e+00  2.0894705605375493e-05 9.7573316318393637e-06 0.0000000000000000e+00  5.7301446831749150e-04 3.9299522183939753e-04 0.0000000000000000e+00  4.5090121600475041e-04 8.0663056869820671e-04 0.0000000000000000e+00  -6.9527307596707665e-04 6.9203654268130640e-04 0.0000000000000000e+00  1.4732134173907422e-04 9.5370855800735359e-04 0.0000000000000000e+00  -2.3359628609467926e-04 8.6152233402593049e-04 0.0000000000000000e+00  -2.8843390411044834e-04 4.6936941017635374e-04 0.0000000000000000e+00  9.5998812483004262e-04 1.0787436095600046e-04 0.0000000000000000e+00  -6.6145631890788495e-04 1.0589835203509497e-03 0.0000000000000000e+00  -1.5651868018247387e-04 7.6211806424448516e-04 0.0000000000000000e+00  -1.1326922057189049e-05 2.5445469627701213e-06 0.0000000000000000e+00  -1.0113327869835860e-04 9.0619052295608810e-05 0.0000000000000000e+00  2.7140907146174588e-04 4.0079759859099355e-04 0.0000000000000000e+00  8.1494780203098463e-06 5.7681084006495377e-04 0.0000000000000000e+00  -1.2323451152839262e-04 6.0292968117850486e-04 0.0000000000000000e+00  6.7861385405017791e-04 1.0150010854712301e-03 0.0000000000000000e+00  -4.8857291616481732e-05 7.9504664877891741e-04 0.0000000000000000e+00  2.9828794203103938e-04 6.3198633683174941e-04 0.0000000000000000e+00  3.0508396773383002e-05 8.6804262215041232e-04 0.0000000000000000e+00  -4.0614624198344199e-04 9.6290449505298374e-04 0.0000000000000000e+00  -1.7109501639994755e-04 7.1083679046795830e-04 0.0000000000000000e+00  -1.1458939550586291e-04 4.4581533317183416e-04 0.0000000000000000e+00  5.7547889809313881e-05 7.8934036950098675e-05 0.0000000000000000e+00  -1.2264316456667479e-04 2.1528196396012372e-04 0.0000000000000000e+00  3.4686198635808393e-04 9.1138457663017644e-04 0.0000000000000000e+00  7.4569309178986842e-04 1.1595240234436690e-03 0.0000000000000000e+00  -8.3805351776823601e-04 4.1584272711383576e-04 0.0000000000000000e+00  4.0631563348033842e-04 7.8666019030824476e-04 0.0000000000000000e+00  9.2072721139176391e-05 7.7284898476339282e-04 0.0000000000000000e+00  -1.2029671250615136e-04 8.5224458491298441e-04 0.0000000000000000e+00  3.4603566092319970e-04 7.5597452590140388e-04 0.0000000000000000e+00  -4.1774462058873985e-04 1.0936153650132640e-03 0.0000000000000000e+00  3.2761543088992374e-04 -1.7843040501810609e-04 0.0000000000000000e+00  5.8703720968207812e-04 -4.8779021065963171e-04 0.0000000000000000e+00  -3.0324627905992661e-04 9.7658214583057996e-04 0.0000000000000000e+00  3.2752349255484422e-04 1.7109400130569813e-03 0.0000000000000000e+00  6.7620919824558313e-04 4.1944774526488652e-04 0.0000000000000000e+00  1.8013653480756462e-04 2.1597769807622737e-04 0.0000000000000000e+00  -1.6047892153050648e-05 5.1554652173308704e-04 0.0000000000000000e+00  -1.1900276429492047e-04 4.8775463521467824e-04 0.0000000000000000e+00  -1.4201819252747228e-04 5.5897015236746033e-04 0.0000000000000000e+00  2.2855459928780548e-04 9.2906169658115085e-04 0.0000000000000000e+00  -2.4300676865361513e-04 6.4305643364340138e-04 0.0000000000000000e+00  1.9258972916620670e-04 6.7454706268488382e-04 0.0000000000000000e+00  5.4409801633057291e-06 9.6976093054243929e-04 0.0000000000000000e+00  -3.8343232557771562e-04 9.8561304039670550e-04 0.0000000000000000e+00  4.3961107710678755e-04 5.9102108534432227e-04 0.0000000000000000e+00  3.0152836281095637e-04 6.2951156561068190e-04 0.0000000000000000e+00  -5.1808755473352482e-04 4.1292204660545423e-04 0.0000000000000000e+00  -5.0005419338407481e-04 2.5285614482342721e-04 0.0000000000000000e+00  -3.4201076043232856e-04 5.5511893516927032e-04 0.0000000000000000e+00  6.6419408657235671e-04 6.9505994268286670e-04 0.0000000000000000e+00  -1.3809480984702132e-04 9.0882843235219862e-04 0.0000000000000000e+00  2.2765086637400358e-04 9.0280719228361724e-04 0.0000000000000000e+00  6.6107019579735818e-04 5.4799859074588988e-04 0.0000000000000000e+00  -5.5902006106519015e-04 7.6236184509610825e-04 0.0000000000000000e+00  -4.5086651612979192e-04 1.6103601254016740e-04 0.0000000000000000e+00  -3.8220420970161308e-05 7.9192643919818745e-06 0.0000000000000000e+00  9.5591444866912266e-06 -9.0317061038746743e-06 0.0000000000000000e+00  -1.9269005375083474e-05 5.0095055666948665e-05 0.0000000000000000e+00  -9.9246371118533682e-05 6.8260123996528920e-05 0.0000000000000000e+00  6.2563733057475687e-04 6.6538981667645656e-04 0.0000000000000000e+00  3.2360897237772854e-04 8.3393532570376068e-04 0.0000000000000000e+00  -3.0073116167427303e-04 6.9454430910898283e-04 0.0000000000000000e+00  2.5635330521388207e-04 8.4746896679065078e-04 0.0000000000000000e+00  -2.2263521896294732e-05 8.8974060903525298e-04 0.0000000000000000e+00  4.3133830718356073e-04 4.4640589429394942e-04 0.0000000000000000e+00  3.4403594367419876e-04 9.3628349942392647e-04 0.0000000000000000e+00  5.8514841189142252e-04 6.9163140657349141e-04 0.0000000000000000e+00  5.8777643547801685e-04 4.4299788105053156e-04 0.0000000000000000e+00  8.3750358806244354e-04 6.5310151441274320e-04 0.0000000000000000e+00  7.8584874955082745e-04 8.5003230278422361e-04 0.0000000000000000e+00  1.0708298510991490e-03 5.9806503185673052e-04 0.0000000000000000e+00  7.5911289349895293e-04 -3.4733923469402214e-04 0.0000000000000000e+00  1.0794889300196179e-03 -2.2081289553392509e-04 0.0000000000000000e+00  -3.3097834295831436e-04 1.7660081242373147e-05 0.0000000000000000e+00  -1.3577601699128514e-04 -2.3603772073473717e-04 0.0000000000000000e+00  6.6893414167516459e-04 -6.5193452176747965e-04 0.0000000000000000e+00  4.9487555168404923e-04 -3.7662475936056167e-04 0.0000000000000000e+00  7.9822044917026068e-05 -9.1449231623694289e-05 0.0000000000000000e+00  -4.1612958934341222e-05 -4.2489688064778100e-05 0.0000000000000000e+00  -1.1440222392851186e-02 -1.6386402278926041e-03 0.0000000000000000e+00  -3.5123028899507565e-03 1.0861126897866731e-03 0.0000000000000000e+00  4.8342096274549055e-06 -5.8656713753655308e-06 0.0000000000000000e+00  -3.9981853192960701e-05 7.0672195184431623e-06 0.0000000000000000e+00  -2.1393293554040826e-04 9.6577300457760255e-05 0.0000000000000000e+00  2.0048984300460583e-04 -7.6951286951863057e-04 0.0000000000000000e+00  9.3797923937545406e-05 -3.6648671467394916e-04 0.0000000000000000e+00  1.7683043478471884e-05 5.3490740690200401e-05 0.0000000000000000e+00  -2.2218182538547952e-03 -1.3322064557912873e-04 0.0000000000000000e+00  3.9425819447745539e-04 1.3249371590816391e-03 0.0000000000000000e+00  3.3560632959474517e-04 6.4216864337373052e-04 0.0000000000000000e+00  2.2582701297397472e-05 1.7945123761213261e-05 0.0000000000000000e+00  -1.3883200518885865e-04 -7.7101657636100224e-04 0.0000000000000000e+00  1.9495466093747571e-04 -2.3614437242104491e-04 0.0000000000000000e+00  1.9081133765347806e-02 1.9579213077615827e+00 0.0000000000000000e+00  1.5110856894831716e-02 -1.8156644591795374e+00 0.0000000000000000e+00  5.5682900512028934e-02 2.4121595379945413e+00 0.0000000000000000e+00  -1.6137176578400365e-02 -6.8155724705259579e-01 0.0000000000000000e+00  1.9012964199218391e-03 1.4460104950798035e-04 0.0000000000000000e+00  8.7387940341328560e-02 -1.7242759382274728e+00 0.0000000000000000e+00  3.9912259647428025e-04 -8.1712942983442022e-04 0.0000000000000000e+00  7.2488749989854245e-02 -2.2395862960662222e-01 0.0000000000000000e+00  -5.9387575001284998e-02 1.6964150464044507e+00 0.0000000000000000e+00  -6.6727512917537249e-04 1.6357709662741948e-01 0.0000000000000000e+00  3.4521494219539196e-04 -9.2924087141855159e-04 0.0000000000000000e+00  1.1947064822211385e-01 1.6449273765618149e+00 0.0000000000000000e+00  -2.1440254249872813e-04 -5.9252931393439167e-04 0.0000000000000000e+00  1.2805302340468554e-04 -7.3682154730525702e-04 0.0000000000000000e+00  6.0157689482332598e-02 -1.4384066865369534e+00 0.0000000000000000e+00  5.0751840797975845e-01 1.6132207653979744e-01 0.0000000000000000e+00  -1.8778463929344890e-05 -2.2511910081658128e-06 0.0000000000000000e+00  9.3359045869201591e-03 -2.3604644632276245e-01 0.0000000000000000e+00  -2.0142554029414582e-02 -1.4462602304488970e+00 0.0000000000000000e+00  -7.2967521319346820e-02 -1.8772648666622063e-01 0.0000000000000000e+00  -3.6227903857522553e-01 2.7976407419670140e+00 0.0000000000000000e+00  -8.4222556826401049e-02 1.8362461918910711e+00 0.0000000000000000e+00  -2.3061995600875243e-01 1.8232710110736077e+00 0.0000000000000000e+00  1.8054172445803235e-01 2.7324009079079610e+00 0.0000000000000000e+00  6.7063724493660729e-02 -1.7801031228285762e+00 0.0000000000000000e+00  7.8717742468692332e-03 1.4124281551356075e+00 0.0000000000000000e+00  1.7496253423486215e-02 -1.8007017544975878e+00 0.0000000000000000e+00  -1.3685159774874539e-01 1.3334449011527796e+00 0.0000000000000000e+00  -8.0347505953823867e-02 1.6454898643684897e+00 0.0000000000000000e+00  3.9389832897579316e-02 1.8995858184614949e+00 0.0000000000000000e+00  4.6161641415932247e-01 1.8115285283774811e+00 0.0000000000000000e+00  1.2211888812524438e+00 5.9081107475123062e-01 0.0000000000000000e+00  2.6191510844495457e-02 1.1840779874423464e+00 0.0000000000000000e+00  -6.7820226132571090e-02 4.4845806171587310e-01 0.0000000000000000e+00  2.5982066094068423e-01 2.0785029189142703e+00 0.0000000000000000e+00  4.0011178729240864e-02 -1.5062319656454364e+00 0.0000000000000000e+00  3.1327149867519229e-02 8.1746429935454235e-01 0.0000000000000000e+00  9.3868133016934946e-02 1.4939310107208765e+00 0.0000000000000000e+00  1.7305864645164534e-01 -6.0677105139447914e-02 0.0000000000000000e+00  -8.2457524988254899e-02 -8.4793935973220180e-01 0.0000000000000000e+00  5.1019671817618593e-02 1.7949082181794820e+00 0.0000000000000000e+00  2.8646234648150932e-02 1.7549572977259329e+00 0.0000000000000000e+00  2.6443387129405065e-06 -9.3492310720571606e-06 0.0000000000000000e+00  -7.5954959195555477e-04 -3.2692808260810681e-04 0.0000000000000000e+00  1.1580978975584595e-01 1.7522661447872525e+00 0.0000000000000000e+00  -8.3647576341103494e-02 -1.4700503645184855e+00 0.0000000000000000e+00  5.0990915298409538e-02 1.4667004263034582e+00 0.0000000000000000e+00  -1.0049317322620858e-01 -1.4315158944381012e+00 0.0000000000000000e+00  -9.8757324355880794e-04 -9.1325743356429081e-04 0.0000000000000000e+00  -1.7460401545965429e-01 1.6568974947284127e+00 0.0000000000000000e+00  -1.4428092700219388e-02 -1.3764282429912391e+00 0.0000000000000000e+00  2.1158376368442988e-01 -1.4783046216112017e+00 0.0000000000000000e+00  4.2405568706846385e-02 -1.6177947755610789e+00 0.0000000000000000e+00  2.8050473076575839e-02 1.7836494274551105e+00 0.0000000000000000e+00  1.2307870138599633e-05 -1.8599551594575645e-05 0.0000000000000000e+00  6.0086533176764039e-04 -1.1227112964913562e-03 0.0000000000000000e+00  4.8022276118897802e-05 -2.8840950932274695e-04 0.0000000000000000e+00  -2.2314202194939337e-02 1.5756085188529632e+00 0.0000000000000000e+00  1.3197877396408932e-02 -1.3167919205648231e+00 0.0000000000000000e+00  4.7413139065776799e-01 3.5618677442658891e-01 0.0000000000000000e+00  5.9306046059195310e-02 -1.2970508682200899e+00 0.0000000000000000e+00  -2.6473433670790547e-01 -6.7536896844020433e-01 0.0000000000000000e+00  1.4754721119594677e-01 -9.8312359628108348e-01 0.0000000000000000e+00  -1.0123292483720717e-02 -1.3724764020754423e+00 0.0000000000000000e+00  -1.0305105492248487e+00 1.0083537376215259e+00 0.0000000000000000e+00  -6.4233105760038955e-01 -1.1553848486044536e+00 0.0000000000000000e+00  6.8325930865843700e-04 -6.9469571774225403e-04 0.0000000000000000e+00  3.4173362144970034e-04 -7.1249668845261996e-04 0.0000000000000000e+00  -6.5677067234526929e-04 -8.2462985060661955e-04 0.0000000000000000e+00  -1.6150986768133293e-03 -4.8759968309704168e-04 0.0000000000000000e+00  6.1053913642661979e-04 -8.1761839887358790e-04 0.0000000000000000e+00  -5.3904461590731567e-03 -2.8163959649028558e-04 0.0000000000000000e+00  1.1078452200238660e-03 -1.2063847945642897e-04 0.0000000000000000e+00  1.5937485697777110e-03 6.0893246634669401e-06 0.0000000000000000e+00  3.3262083244640986e-03 -1.1664965254031294e-03 0.0000000000000000e+00  -4.0450245779465779e-02 -1.2547203482256331e+00 0.0000000000000000e+00  7.0134702949059535e-01 -2.7559514677597624e-01 0.0000000000000000e+00  6.8149477995925786e-02 -1.2749756004395112e+00 0.0000000000000000e+00  -3.9722801983796818e-01 -3.8845498410188756e-01 0.0000000000000000e+00  6.1096613323197276e-02 -1.8423334003376706e+00 0.0000000000000000e+00  1.4896293472685732e-01 -7.4120573218163899e-01 0.0000000000000000e+00  -2.9329946499649540e-02 -3.8932760948232531e-01 0.0000000000000000e+00  -1.0499894953156343e-01 -1.7803147515382480e+00 0.0000000000000000e+00  -2.3202983871742480e-02 8.5141471786030087e-01 0.0000000000000000e+00  1.1533399711861540e-02 1.9054944290242355e+00 0.0000000000000000e+00  -1.4795172374178813e-02 5.3395799598018578e-01 0.0000000000000000e+00  1.5419433080796541e-02 1.0298002100778214e+00 0.0000000000000000e+00  2.4641262451552716e-02 -1.5590563702854181e+00 0.0000000000000000e+00  -8.5500607212392138e-02 1.6190868444378841e+00 0.0000000000000000e+00  -7.7219908510843760e-02 1.5469055613277607e+00 0.0000000000000000e+00  -3.3465377961408374e-02 1.5517859051554725e+00 0.0000000000000000e+00  4.8648765419420335e-02 -1.4551418587657721e+00 0.0000000000000000e+00  9.9951651230021435e-02 -1.4901539564536261e+00 0.0000000000000000e+00  -1.8990038576601261e-02 1.0458334734042842e+00 0.0000000000000000e+00  5.5772746042973990e-02 1.7234124378223263e+00 0.0000000000000000e+00  -4.4032955825312400e-02 -1.6651409585819397e+00 0.0000000000000000e+00  -2.3899138207236803e-01 -6.2504424441553696e-01 0.0000000000000000e+00  -1.1679465734338481e+00 8.5955650275328754e-01 0.0000000000000000e+00  -8.2423318250143462e-01 3.9423544968649787e-01 0.0000000000000000e+00  3.4061925809165547e-02 1.5198472320573115e+00 0.0000000000000000e+00  -2.3328420302553782e-01 -4.1902754747408982e-01 0.0000000000000000e+00  -3.0222166191062917e-02 -1.5376161865513183e+00 0.0000000000000000e+00  3.5875543558574280e-02 5.2590934242664367e-01 0.0000000000000000e+00  -6.3999182531524576e-02 -9.8366754681167923e-01 0.0000000000000000e+00  8.6065815993436504e-02 1.8372372269597788e+00 0.0000000000000000e+00  -4.3628306436456543e-02 -1.2573310586643083e+00 0.0000000000000000e+00  -1.7676848625577027e-01 -9.6508157498270353e-01 0.0000000000000000e+00  -2.3689759895713321e-02 -1.6509264814699793e+00 0.0000000000000000e+00  4.6103772121919760e-02 -1.4837800590872388e+00 0.0000000000000000e+00  4.0475334955538678e-02 -6.4887151624725836e-01 0.0000000000000000e+00  -9.1259926202464925e-02 2.8505940447972877e+00 0.0000000000000000e+00  3.9695528686839468e-02 -2.4366400465692273e-02 0.0000000000000000e+00  8.7056197405002242e-02 -1.6684562161086831e+00 0.0000000000000000e+00  1.2506910552065750e-02 -1.5851515955777231e+00 0.0000000000000000e+00  2.8977506812629342e-02 -1.8576066380608751e+00 0.0000000000000000e+00  -5.6820797656653634e-02 -1.0927635547777830e+00 0.0000000000000000e+00  4.0467909999444562e-01 2.4519864065398425e+00 0.0000000000000000e+00  -1.9989229914422110e-01 -4.5069835057110241e-01 0.0000000000000000e+00  -6.2527014342911554e-03 1.7191539608244355e+00 0.0000000000000000e+00  -7.5664971879284060e-02 1.4255901148707060e-04 0.0000000000000000e+00  1.1801096638461911e-01 -1.6846520848157063e+00 0.0000000000000000e+00  2.2137253933293247e-02 -1.3834021575423145e+00 0.0000000000000000e+00  4.4911517248147757e-02 -1.8221627148183051e+00 0.0000000000000000e+00  5.3807182693936112e-02 1.6823023164005910e+00 0.0000000000000000e+00  2.9010277153124708e-01 7.8192185048688856e-01 0.0000000000000000e+00  3.8619427715888771e-01 5.4796151069394294e-01 0.0000000000000000e+00  1.5918135610050865e-01 -1.6064576439329767e+00 0.0000000000000000e+00  8.2237503172378476e-02 2.1007066296419743e+00 0.0000000000000000e+00  -9.5653236823103113e-03 1.4914295221564107e+00 0.0000000000000000e+00  1.2492242270517985e-02 -1.6107594224860873e+00 0.0000000000000000e+00  3.7012701087732747e-02 1.5042982227234376e+00 0.0000000000000000e+00  -7.5652920004695950e-02 2.2206640550304027e+00 0.0000000000000000e+00  -6.1419047663491433e-01 8.2696768079912686e-01 0.0000000000000000e+00  -9.6661123439970350e-03 -8.8513006358891333e-01 0.0000000000000000e+00  8.0031720472048584e-01 -5.6984801047808964e-01 0.0000000000000000e+00  5.5208032285806390e-02 1.8324296191104685e+00 0.0000000000000000e+00  -2.4879811908340035e-01 1.4085967856417647e+00 0.0000000000000000e+00  1.7314503515854621e-02 -1.6237437550374660e+00 0.0000000000000000e+00  8.7030909026096492e-01 2.6786829561806860e+00 0.0000000000000000e+00  -2.2152586910078920e-02 5.0557744060664900e-01 0.0000000000000000e+00  1.0372164166571298e+00 1.8102903085994348e+00 0.0000000000000000e+00  1.7601723826306233e+00 -9.8699417735702100e-01 0.0000000000000000e+00  -4.8725415533294709e-04 -8.3776451176261748e-04 0.0000000000000000e+00  1.2881488747516998e-01 4.9180697860563127e-01 0.0000000000000000e+00  -6.8926159023821224e-02 -1.1748326469310206e+00 0.0000000000000000e+00  -3.3206365829129211e-02 1.7711961873915507e+00 0.0000000000000000e+00  -3.7938353438968545e-04 -7.2977746502684660e-04 0.0000000000000000e+00  4.6238691721643639e-04 -3.4508002451993745e-04 0.0000000000000000e+00  1.7759338073936703e-02 1.4610886453736487e+00 0.0000000000000000e+00  2.0814684788123852e-01 -1.2971097960646800e+00 0.0000000000000000e+00  -7.9996689340912591e-04 1.7833816622851537e+00 0.0000000000000000e+00  6.8675475279043746e-02 -6.6393576220446604e-01 0.0000000000000000e+00  1.5217402626918139e-01 -8.2369528564914807e-01 0.0000000000000000e+00  -1.5365836318330978e-03 1.9047051280203016e+00 0.0000000000000000e+00  5.3339147702173399e-04 -7.6200807653939602e-04 0.0000000000000000e+00  1.4602071969643934e-01 -1.5150345298258856e+00 0.0000000000000000e+00  1.4464239329840411e-01 1.5736787989748020e+00 0.0000000000000000e+00  -7.4571673027973712e-02 9.7970848917413289e-01 0.0000000000000000e+00  -2.2341400739056411e-02 1.7172294391477292e+00 0.0000000000000000e+00  2.3539486901459607e-02 1.0948758774593188e+00 0.0000000000000000e+00  6.6005534974616434e-02 -3.6309169754151710e-01 0.0000000000000000e+00  2.4728721685195475e-02 -3.5493312305922214e-01 0.0000000000000000e+00  5.0510783724126582e-02 1.1725258141386481e+00 0.0000000000000000e+00  -4.8105515965714558e-02 6.9600186337660708e-01 0.0000000000000000e+00  7.7753390912696431e-04 -8.8318093402544847e-04 0.0000000000000000e+00  -1.7391871063515005e-02 -7.8559547984645572e-01 0.0000000000000000e+00  -9.9664935035885856e-03 -1.0341587449513715e-03 0.0000000000000000e+00  -6.4602768773055650e-04 1.0959061191526438e-04 0.0000000000000000e+00  1.9995915868705059e-02 -8.7138421726241866e-01 0.0000000000000000e+00  5.6146925395823132e-02 -1.2838323284033744e+00 0.0000000000000000e+00  1.2302574972818668e-01 -1.6178712838106610e+00 0.0000000000000000e+00  6.9267065722397828e-03 -1.6406142698112050e+00 0.0000000000000000e+00  8.8631638558988091e-02 -4.7998540843209064e-01 0.0000000000000000e+00  6.4364723378473682e-02 -1.6383344173963363e+00 0.0000000000000000e+00  -3.9977096077401597e-01 -1.4282455457475937e-01 0.0000000000000000e+00  -8.0048120499011832e-02 1.4945475074619796e+00 0.0000000000000000e+00  2.1730641204914150e-02 -1.7386168575799987e+00 0.0000000000000000e+00  3.3210268574581098e-01 1.5948847768356553e+00 0.0000000000000000e+00  7.7482394372887800e-02 -1.7587733558590237e+00 0.0000000000000000e+00  -8.1590649281256955e-01 1.0929248157776161e+00 0.0000000000000000e+00  -3.1755514990238147e-02 5.6225754985732534e-01 0.0000000000000000e+00  -7.1603720123179712e-02 -1.6574578403132427e+00 0.0000000000000000e+00  -8.8675966128984984e-02 1.2556876241111432e+00 0.0000000000000000e+00  -3.0372875637863267e-01 -7.8058548063571942e-01 0.