<?xml version="1.0"?>
<VTKFile type="UnstructuredGrid"  version="0.1"  >
<UnstructuredGrid>
<Piece  NumberOfPoints="4961" NumberOfCells="9546">
<Points>
<DataArray  type="Float64"  NumberOfComponents="3"  format="ascii">0 1.5 0  -0 0.09117947244826481 0  0.0220162612375116 0.1293127555043441 0  0.05279126660105127 0.1634918616050268 0  0.09000000000000007 0.1905255888325765 0  0.1320162612375116 0.2092324335849338 0  0.1770037380811163 0.2187948169810202 0  0.2229962619188838 0.2187948169810201 0  0.2679837387624884 0.2092324335849338 0  0.3100000000000001 0.1905255888325765 0  0.3472087333989489 0.1634918616050267 0  0.3779837387624885 0.1293127555043441 0  0.4009800006813722 0.08948206147667603 0  0.4052662851173224 0.07629023443250138 0  0.4200599930048062 0.1082663100071745 0  0.4475409466961425 0.1444168863592189 0  0.4821507162738997 0.173814689612947 0  0.522270987378618 0.1950851111615262 0  0.5660257807239194 0.2072335697337205 0  0.6113691708029376 0.209692016908736 0  0.6561809510911363 0.2023454984290368 0  0.6983657725469559 0.1855375293336648 0  0.7359511198041838 0.1600540315768036 0  0.7671795437981852 0.1270865851906907 0  0.7895690044779959 0.089875012069959 0  0.7989002782867461 0.1116194513821486 0  0.825485631780658 0.1498156710261111 0  0.8592156240140376 0.1818784194956707 0  0.8987093451417441 0.2064950441012706 0  0.9423499175804944 0.222657737339227 0  0.9883506911670961 0.2297047966493422 0  1.034828388826053 0.2273477145954656 0  1.079880208154309 0.2156829903938285 0  1.121661722375201 0.1951881792237927 0  1.158462391387408 0.1667023410626976 0  1.188775591477674 0.1313916894718022 0  1.211360296672653 0.09070184667606328 0  1.225291886488074 0.04629865962039181 0  1.23 0 0  1.38 0 0  1.384807527838563 0.04574057197990705 0  1.399019999318628 0.08948206147667601 0  1.422016261237512 0.1293127555043441 0  1.452791266601051 0.1634918616050268 0  1.49 0.1905255888325765 0  1.532016261237512 0.2092324335849338 0  1.577003738081116 0.2187948169810202 0  1.622996261918884 0.2187948169810201 0  1.667983738762489 0.2092324335849338 0  1.71 0.1905255888325765 0  1.747208733398949 0.1634918616050267 0  1.763158635297163 0.1457777009465727 0  1.8 0.1732050807568878 0  1.842639353457782 0.1915979024630978 0  1.888371034217905 0.1996616316542537 0  1.934729635533386 0.1969615506024416 0  1.979215953207831 0.1836432213760548 0  2.019431718340557 0.1604246385510087 0  2.053208888623796 0.1285575219373079 0  2.078726528064682 0.08975983604009244 0  2.089496128668151 0.06017060156551748 0  2.099019999318628 0.08948206147667601 0  2.122016261237512 0.1293127555043441 0  2.152791266601051 0.1634918616050268 0  2.19 0.1905255888325765 0  2.232016261237511 0.2092324335849338 0  2.277003738081116 0.2187948169810202 0  2.322996261918884 0.2187948169810201 0  2.367983738762488 0.2092324335849338 0  2.41 0.1905255888325765 0  2.447208733398949 0.1634918616050267 0  2.457084733682728 0.1525234520934048 0  2.4821507162739 0.173814689612947 0  2.522270987378618 0.1950851111615262 0  2.56602578072392 0.2072335697337205 0  2.611369170802938 0.209692016908736 0  2.656180951091136 0.2023454984290368 0  2.698365772546956 0.1855375293336648 0  2.735951119804184 0.1600540315768036 0  2.767179543798185 0.1270865851906907 0  2.790590838130901 0.08817671132765556 0  2.805090316699118 0.04514379244431505 0  2.81 0 0  3 0 0  3 1.5 0  0 0.7956998320486358 0  0.4110904441558352 0.08887894789033324 0  0.7773699356874649 0.1101500221202465 0  1.5 1.5 0  3 0.75 0  0 0.4434396522484503 0  3 0.375 0  0 0.2673095623483576 0  0 0.1792445173983112 0  0 0.135211994923288 0  2.25 1.5 0  0.75 1.5 0  1.807676614587897 0.8837271123414687 0  1.04553857344641 0.8979441530181422 0  2.403437242208115 0.8132876225209357 0  0.5070864579510219 1.00719278150819 0  3 1.125 0  1.338035405010484 0.5883821138073757 0  2.625 1.5 0  0.3818338799394321 0.6099209340690734 0  2.067950237167102 0.5767429460037152 0  1.428016626639016 0.9663701540160734 0  1.875 1.5 0  2.136976695697423 1.114248364898298 0  1.125 1.5 0  0.375 1.5 0  0.7837785056474272 0.5924157926009261 0  2.621900904970652 1.121900904970652 0  0 1.147849916024318 0  1.717071692555337 0.550779009763445 0  1.678619011272733 1.204235418149387 0  0.8184015011321764 1.160011833453945 0  2.690771901920515 0.5625 0  1.191553529739931 1.18494431212041 0  2.361743998733192 0.516240498397431 0  2.727335050325185 0.8509414958930873 0  1.061120194703906 0.6196995992969355 0  0.269244960297408 0.8637990218922467 0  0.7609530458041533 0.8768664729047809 0  0.5625 1.286150286226427 0  0.2788879438654684 1.226607136693913 0  2.077535333020466 0.8486969269297693 0  2.4375 1.312474598220077 0  2.809426100237187 1.309426100237187 0  1.544358239139601 0.7389704993474611 0  1.434454912167138 1.210530519498476 0  2.380335199591509 1.061271835208851 0  1.926191456889599 1.252931474193008 0  0.5486378118088926 0.7757115443742588 0  0.5753328044103648 0.454959652232189 0  1.281333603460298 0.3634530521588742 0  0.9959109141311655 1.308173392725312 0  1.507364216928931 0.4358170942512657 0  1.21812632380771 0.7680504611018459 0  0 0.6195697421485431 0  1.3125 1.5 0  0.2892140007400885 0.4197188740688536 0  1.924109453869066 0.4139433366638808 0  0.9329747065756857 0.4375180073994652 0  2.243231692495831 0.684324343130167 0  2.0625 1.5 0  2.124178136191116 0.3821183579116478 0  1.923364695744858 0.7179848099571996 0  2.233034933769442 1.295537230099697 0  1.961794510294921 1.014032929092127 0  0.9133498533613748 0.7509830595402348 0  0 0.9717748740364769 0  0.1875 1.5 0  0 1.323924958012159 0  1.227107007305785 0.9862124750220198 0  1.616617139708145 0.9194004298184476 0  2.811636610329211 1.039737091854792 0  0.1901803394569171 0.5855957240372172 0  2.511165533602297 0.6467174115519351 0  2.536466024168012 0.9507486861843897 0  0.1866521719860137 1.047526440960541 0  2.74946330463778 0.3751246081287475 0  2.543804048982231 0.4145708923164018 0  0.9375 1.5 0  2.4375 1.5 0  0.5625 1.5 0  3 0.5625 0  1.6875 1.5 0  3 0.1875 0  3 0.9375 0  3 1.3125 0  2.8125 1.5 0  1.010044310702206 1.096645863828023 0  2.623488142128434 1.314011651358178 0  2.229558763998408 0.9540962470011799 0  2.845385950960257 0.65625 0  0.7525337220569124 0.4130199536593896 0  1.10537722367743 0.3921278680533664 0  0.6842290971134891 1.039833940778862 0  0.7386374643770518 1.32083913541365 0  1.553387564684306 1.08522930563603 0  1.788789291239656 1.06235950910253 0  1.559809215736361 1.334301807720895 0  1.750410104758408 0.7205088288478614 0  1.672011031024921 0.3842266692686779 0  1.77867146649739 1.349246747510312 0  1.21875 1.355246746101045 0  0.8723426006985372 1.001666865795386 0  1.380631426145093 0.7466576340788873 0  0.4259246536592668 0.3283409344703117 0  0.3444360723462823 1.008028502358495 0  0.6161474109915657 0.6198433096250735 0  0.4265019066463465 1.151756411601508 0  1.403034104827827 1.367717620859348 0  2.874684993382777 0.28125 0  2.874778249279309 0.46875 0  2.071314369495706 1.334001876948522 0  2.3 0.3730371416193449 0  1.322682484320052 1.105857305698365 0  1.563127563616163 0.5828461597844022 0  2.559040610931566 0.7958017532902765 0  1.213306121383676 0.5002133671656324 0  1.916121887065227 0.5659454196943852 0  2.207677378621353 0.5116761937353096 0  0.1257028237453774 1.235887437018238 0  0.7203062975228639 0.7304636720840537 0  0.3921145397364951 0.7663844669080319 0  2.70905347612285 0.7067207479465436 0  2.87968965213058 0.84375 0  0.1396742765227637 0.3714373577111671 0  0.1209675020841686 0.8837373530425563 0  0.1396318055029159 0.7309656161457982 0  0.4039274761094683 1.336239793581983 0  2.676470777350768 0.9877614171414461 0  0.2098223519481562 1.355491059017463 0  0.6161949108813681 0.9073080762684851 0  0.6728981805985057 1.187471545812503 0  0.4313243650936899 0.473428383024358 0  1.317579957488075 0.8752219089473544 0  1.05247475519209 0.7587740171666131 0  0.9218858728134471 0.6117854803862035 0  2.343741823603972 1.201704901656183 0  2.483180588903391 1.163054990844907 0  1.336494261441537 0.237261632693729 0  2.096334636915305 0.983917300563715 0  2.059942810014369 0.7131710752499992 0  1.940957218750955 0.8535106616369695 0  0.2735884026449029 0.6956028768230409 0  2.3791553829517 0.6794620539851567 0  2.443566922502795 0.3224565874575337 0  2.21140571429892 0.8179437442036444 0  2.863880028189143 1.175018869261394 0  1.212122991296861 0.6341965806889284 0  0.8702381850023826 1.37471255674248 0  0.4252003220264352 0.89843828480276 0  2.714126143737636 1.217200861470203 0  2.34375 1.406237299110039 0  2.71875 1.406237608026668 0  2.903224894283775 1.403224894283775 0  2.53125 1.5 0  1.444637821860123 0.3169971434781329 0  1.307097209138961 1.253815337580837 0  1.806074818262501 0.3310941379078186 0  0.09375 1.5 0  1.96875 1.5 0  1.467196512253796 0.8429542418758076 0  0.7811182225539175 0.2860230046382459 0  0.8880470276332622 0.8755399020562793 0  2.004554624687214 1.142507703833496 0  1.901808674873915 1.376717053991818 0  1.80956117606876 1.192202387775541 0  0.65625 1.5 0  2.256163989601168 1.076312782066936 0  2.35728348455407 0.9340561611988477 0  0.5508073343087652 1.161974855816299 0  1.822201850254356 0.484799098822588 0  0.6415475671733072 0.3394071993736185 0  0.6854011703162045 0.5171310296285601 0  2.010601404748645 0.3128962050875828 0  1.458109478391155 0.6494112449225909 0  1.556659288882675 1.21212759481645 0  2.15625 1.5 0  1.102952541966123 1.010721102324488 0  3 0.09375 0  2.905 0 0  1.698833571793874 0.8302602504158462 0  0.1128136071602732 0.4908067814983783 0  1.375215724596343 0.4593979824254396 0  1.667188501011557 1.033651962891267 0  0.5152717989473731 0.5573202673988191 0  0.4756630816937197 0.6823252715484635 0  2.485944291803511 0.5248037876852512 0  0.609375 1.393075143113214 0  1.657554629504312 0.6506084627130724 0  1.180547956106694 0.2992004577305749 0  1.040994897946075 0.4976964206623483 0  2.883588023402782 0.1625217501240843 0  1.437965738677728 1.09476840787
[...]
<PointData  Vectors="f_60"> 
<DataArray  type="Float64"  Name="f_60"  NumberOfComponents="3" format="ascii">1.1091624026780871e-04 -4.8346243328151043e-04 0.0000000000000000e+00  1.0727327818998574e-05 7.7112391446916239e-05 0.0000000000000000e+00  5.4067661619634807e-05 5.4063407391952035e-05 0.0000000000000000e+00  3.1004269880249158e-04 2.4185636654844520e-04 0.0000000000000000e+00  1.7224961051253917e-04 2.4578807889129631e-04 0.0000000000000000e+00  -3.1580212609331597e-04 4.2484860331129423e-04 0.0000000000000000e+00  2.6681022638457062e-04 5.5889843629769508e-04 0.0000000000000000e+00  1.2318399730171724e-06 2.9169477371908674e-04 0.0000000000000000e+00  -7.0195785084659651e-05 1.9864052886730082e-04 0.0000000000000000e+00  2.8637437284385160e-04 -4.2620551249318257e-06 0.0000000000000000e+00  -3.7332663710199822e-04 4.6772856864360317e-04 0.0000000000000000e+00  -8.6087364413982515e-05 5.2532874451384796e-04 0.0000000000000000e+00  8.4353724459871593e-05 1.4865720788900160e-04 0.0000000000000000e+00  -1.0301927045503338e-04 9.7211946098062403e-05 0.0000000000000000e+00  8.7068429616554409e-05 3.0579701525164306e-04 0.0000000000000000e+00  -3.6506463585832834e-05 3.5662573068701768e-04 0.0000000000000000e+00  -1.1097680633392369e-05 4.5451002974155534e-04 0.0000000000000000e+00  3.6368713297630929e-04 5.1242712593240793e-04 0.0000000000000000e+00  2.3230424450833170e-05 2.7240779634088788e-04 0.0000000000000000e+00  1.2619265022418595e-04 2.2988652272049037e-04 0.0000000000000000e+00  -9.6461562846841248e-05 3.2814473176818646e-04 0.0000000000000000e+00  -1.7932086698174525e-04 5.4438142221863118e-04 0.0000000000000000e+00  3.9442790843528854e-05 4.4340355181704679e-04 0.0000000000000000e+00  1.1100532544004727e-05 3.4994319525022128e-04 0.0000000000000000e+00  -1.6415610691819380e-04 1.6215082663010661e-04 0.0000000000000000e+00  -1.5078036088445312e-04 2.7848434526572200e-04 0.0000000000000000e+00  2.4328842475258584e-04 5.8827322376189340e-04 0.0000000000000000e+00  3.7661381306402863e-04 4.6491446123639947e-04 0.0000000000000000e+00  -2.5373572409550008e-04 1.1173162153382201e-05 0.0000000000000000e+00  1.7536606478772243e-04 2.7568898447795386e-04 0.0000000000000000e+00  -1.2900925106455353e-04 3.4837974527537159e-04 0.0000000000000000e+00  -5.1436601609395114e-05 5.3423094318955859e-04 0.0000000000000000e+00  3.8969291147304626e-04 2.6870567145984416e-04 0.0000000000000000e+00  -8.9411011069246622e-05 2.8802236082991524e-04 0.0000000000000000e+00  6.2848665185499827e-05 -2.1051276393450369e-05 0.0000000000000000e+00  5.1711679545941538e-05 -1.6478598059647105e-04 0.0000000000000000e+00  -1.4752207130075220e-04 2.9983976523527487e-04 0.0000000000000000e+00  1.6602706859510479e-04 8.7586547020814150e-04 0.0000000000000000e+00  5.6005067826298037e-04 4.4640930651221485e-04 0.0000000000000000e+00  8.9917723842965886e-05 2.1666373654233211e-04 0.0000000000000000e+00  -1.1598416808382295e-04 2.7616183259183090e-04 0.0000000000000000e+00  -1.3927360692168116e-04 2.5776594474504307e-04 0.0000000000000000e+00  -6.6786094241738281e-05 4.0145183149748305e-04 0.0000000000000000e+00  1.2460327266064624e-04 3.8451242118555426e-04 0.0000000000000000e+00  -3.9704666624292677e-05 1.9004725976721435e-04 0.0000000000000000e+00  7.0195800934187965e-05 2.7681937636741936e-04 0.0000000000000000e+00  -1.4967410717691768e-04 4.2671535685586781e-04 0.0000000000000000e+00  -1.6485320676238468e-04 5.0264026792318911e-04 0.0000000000000000e+00  3.5124432558893896e-04 3.0367795450584153e-04 0.0000000000000000e+00  2.8509250725544682e-04 1.8185423864783057e-04 0.0000000000000000e+00  -2.1249805902299841e-04 4.0108311874763379e-04 0.0000000000000000e+00  -3.3341177530425036e-04 3.7611395424336783e-04 0.0000000000000000e+00  -9.6141757119562669e-05 2.4453667789528125e-04 0.0000000000000000e+00  1.9985011518793607e-04 2.2157767939369127e-04 0.0000000000000000e+00  -2.2447663350363430e-04 3.9692143991868200e-04 0.0000000000000000e+00  9.9430864891068027e-05 5.6684865120946461e-04 0.0000000000000000e+00  4.7232323384935782e-04 2.4738124197637326e-04 0.0000000000000000e+00  -1.5999391615178105e-04 2.2512071175596679e-04 0.0000000000000000e+00  -2.3416082051653871e-04 1.9238875696623285e-05 0.0000000000000000e+00  -3.0770117111168899e-05 4.0758219446942319e-05 0.0000000000000000e+00  5.7984253408831685e-05 4.4209841817050329e-05 0.0000000000000000e+00  6.6182684984543659e-06 1.5531559122456963e-04 0.0000000000000000e+00  -4.7240606609644340e-05 7.0855427540909060e-05 0.0000000000000000e+00  2.9004352614664169e-04 2.1636691490997618e-04 0.0000000000000000e+00  1.0291823362845971e-04 2.0961969195333607e-04 0.0000000000000000e+00  -3.7855225827707398e-04 3.0210749661927741e-04 0.0000000000000000e+00  2.4091880401703027e-04 4.7917530928263719e-04 0.0000000000000000e+00  2.8164333896353968e-04 4.4165325345685118e-04 0.0000000000000000e+00  1.2962266465348576e-05 1.3556474268866463e-04 0.0000000000000000e+00  8.3885518641868439e-05 2.3735555257669194e-04 0.0000000000000000e+00  3.4488041518570606e-04 6.6009485529102871e-04 0.0000000000000000e+00  6.1816088586942369e-04 5.5258613048987377e-04 0.0000000000000000e+00  4.5561757744169094e-04 5.2856257770717366e-04 0.0000000000000000e+00  1.7688991043535371e-04 3.6995965083843832e-04 0.0000000000000000e+00  1.7822808911206338e-04 3.2594904065166749e-04 0.0000000000000000e+00  2.0788758512324686e-04 6.5338668905807362e-05 0.0000000000000000e+00  2.2436627544110012e-04 -1.0597217152513472e-04 0.0000000000000000e+00  3.1270709095578860e-04 -6.7580017300382898e-04 0.0000000000000000e+00  -4.8751199828663396e-04 -2.0932415899933487e-04 0.0000000000000000e+00  -6.7230223650383177e-04 1.7034853511397363e-04 0.0000000000000000e+00  5.7902772226885711e-05 9.4402363870622457e-05 0.0000000000000000e+00  3.2571432861436782e-04 -1.3122756642497811e-04 0.0000000000000000e+00  2.5741489987313843e-04 -8.5393163304196189e-05 0.0000000000000000e+00  -1.0401561302352985e-02 -2.4896621609480397e-03 0.0000000000000000e+00  2.1374871698494960e-03 7.4195784783790677e-04 0.0000000000000000e+00  -6.8806978138614957e-06 2.2097988826294634e-05 0.0000000000000000e+00  -4.7939539115800392e-05 -2.0781011976081391e-05 0.0000000000000000e+00  -2.1570414249385094e-04 1.6132307246144586e-04 0.0000000000000000e+00  1.9029242006848257e-05 -5.5832491305230685e-04 0.0000000000000000e+00  2.8962672627547522e-04 -1.2574338484221270e-04 0.0000000000000000e+00  6.2077057779067276e-06 4.4626649093179450e-05 0.0000000000000000e+00  -5.1716302686742165e-04 4.5552888250414682e-05 0.0000000000000000e+00  1.5568610408512755e-04 4.5521679508541053e-04 0.0000000000000000e+00  1.7729592659416140e-04 3.2132471564369914e-04 0.0000000000000000e+00  5.4145611471081699e-05 1.1823501606688043e-04 0.0000000000000000e+00  -2.8537486161243334e-05 -2.3325721981949670e-04 0.0000000000000000e+00  4.0300255660415144e-05 -7.1908707319327976e-05 0.0000000000000000e+00  5.8151214902715008e-03 6.8436487547662395e-01 0.0000000000000000e+00  2.5139800707673983e-03 -6.3498828448872868e-01 0.0000000000000000e+00  6.5903804504605194e-03 8.4763700204462589e-01 0.0000000000000000e+00  -5.8542252115496417e-03 -2.4537507008414589e-01 0.0000000000000000e+00  1.1031976115409682e-03 5.4786640003275921e-05 0.0000000000000000e+00  2.5173835618357097e-02 -6.1336666226906678e-01 0.0000000000000000e+00  -5.7374290972197952e-04 -3.3934766121823304e-04 0.0000000000000000e+00  2.3463064343275809e-02 -1.0166915207254501e-01 0.0000000000000000e+00  -2.7301774101394127e-02 5.8466287053171084e-01 0.0000000000000000e+00  -6.6162917301816073e-04 5.6414559081936072e-02 0.0000000000000000e+00  3.2270285449613250e-04 -3.7553544168021495e-04 0.0000000000000000e+00  4.1579757656528882e-02 5.5077135125411258e-01 0.0000000000000000e+00  -2.0201763008382103e-04 -3.5467466022823089e-04 0.0000000000000000e+00  2.2712793595648488e-04 -3.2836970551566001e-04 0.0000000000000000e+00  1.9291953504288292e-02 -4.9403542874768980e-01 0.0000000000000000e+00  1.8149052869065044e-01 2.0772722297304086e-01 0.0000000000000000e+00  -8.5753280547016154e-06 2.3390318375510280e-05 0.0000000000000000e+00  1.5937125581788091e-03 -7.8967403484725127e-02 0.0000000000000000e+00  -8.7316944783984145e-03 -5.0747477829688969e-01 0.0000000000000000e+00  -2.4226899466671527e-02 -8.7454812450339453e-02 0.0000000000000000e+00  -1.5525219394366060e-01 9.9469608541192223e-01 0.0000000000000000e+00  -2.4361448027409381e-02 6.3800910005326661e-01 0.0000000000000000e+00  -9.1170640853193485e-02 6.0013458388564600e-01 0.0000000000000000e+00  4.1603273269883868e-02 9.4872867106670355e-01 0.0000000000000000e+00  2.2225202811014196e-02 -6.1737223274340547e-01 0.0000000000000000e+00  5.0187800397307634e-03 4.9369293649169227e-01 0.0000000000000000e+00  3.5137261115428895e-03 -6.2960999564466724e-01 0.0000000000000000e+00  -4.1290508266310692e-02 4.4621219824281705e-01 0.0000000000000000e+00  -2.1878980332210023e-02 5.6641045017699765e-01 0.0000000000000000e+00  8.4296308830509297e-03 6.6865157656045460e-01 0.0000000000000000e+00  1.6250856616730239e-01 5.5507803551229817e-01 0.0000000000000000e+00  4.4045960194617423e-01 -7.7219444298355838e-02 0.0000000000000000e+00  9.0289027158714612e-03 4.0909144350922833e-01 0.0000000000000000e+00  -2.2317531570928743e-02 1.3868320132196738e-01 0.0000000000000000e+00  8.2522740416609008e-02 7.5373475598884598e-01 0.0000000000000000e+00  1.4425250472840720e-02 -5.2474834796145586e-01 0.0000000000000000e+00  1.1532393421690256e-02 2.9385679200729631e-01 0.0000000000000000e+00  3.1620267023261026e-02 5.3786908855822901e-01 0.0000000000000000e+00  5.6991824823530164e-02 -8.1459001643710477e-02 0.0000000000000000e+00  -2.8823876894163228e-02 -2.6895220175934897e-01 0.0000000000000000e+00  1.0414399327356081e-02 6.3170505214537731e-01 0.0000000000000000e+00  1.2789732344349457e-02 6.0791773498129908e-01 0.0000000000000000e+00  -7.6795798427958726e-06 1.8763171544767930e-05 0.0000000000000000e+00  -2.4831579345631008e-04 -1.2125155679160984e-04 0.0000000000000000e+00  4.1331192021110429e-02 6.1537658630542447e-01 0.0000000000000000e+00  -2.8285456276791760e-02 -5.0965268734256086e-01 0.0000000000000000e+00  1.5744940443343951e-02 5.0338039662191614e-01 0.0000000000000000e+00  -2.7745010092996680e-02 -4.9876737600140703e-01 0.0000000000000000e+00  -5.4443655325027321e-04 -5.1842494553641606e-04 0.0000000000000000e+00  -6.5778447935041159e-02 6.1278886073319583e-01 0.0000000000000000e+00  -3.1820145113929982e-03 -4.7968005398819163e-01 0.0000000000000000e+00  7.7667071810249108e-02 -5.2688118478097212e-01 0.0000000000000000e+00  1.6335188818575135e-02 -5.5847505910160389e-01 0.0000000000000000e+00  1.1874964025134343e-02 6.2036271302769630e-01 0.0000000000000000e+00  1.4584506108633677e-05 1.7998092455162930e-05 0.0000000000000000e+00  1.9835206438563401e-04 -3.3896190027019713e-04 0.0000000000000000e+00  1.1071507967899956e-05 -3.1854991029965282e-05 0.0000000000000000e+00  -4.5467327116457878e-03 5.5197181298288756e-01 0.0000000000000000e+00  3.5892502633032394e-03 -4.6120743039659540e-01 0.0000000000000000e+00  1.8171305240054367e-01 1.7904221861025121e-02 0.0000000000000000e+00  1.7794478068948037e-02 -4.4290865630532616e-01 0.0000000000000000e+00  -7.6350112679370002e-02 -1.9159846174480713e-01 0.0000000000000000e+00  6.9892250891514990e-02 -3.5112974566701666e-01 0.0000000000000000e+00  -4.0785007240578637e-03 -4.8647614477073214e-01 0.0000000000000000e+00  -3.4424293238933840e-01 6.5759305057336048e-01 0.0000000000000000e+00  -2.1113628169555268e-01 -4.3280766298996193e-01 0.0000000000000000e+00  5.4028203961681526e-04 -4.6130008871946146e-04 0.0000000000000000e+00  5.0420441976463414e-04 -5.0810543802780664e-04 0.0000000000000000e+00  -4.9617749737012413e-04 -4.9255880257047962e-04 0.0000000000000000e+00  -2.6176610826203662e-04 -5.0253910209177711e-05 0.0000000000000000e+00  1.8257663218421586e-04 -2.7283213102606340e-04 0.0000000000000000e+00  -1.7897144522318336e-03 -1.7959649234152034e-05 0.0000000000000000e+00  5.4561441020991967e-04 -1.0758706135603345e-04 0.0000000000000000e+00  1.7203168597756994e-03 2.1075261091686346e-04 0.0000000000000000e+00  3.3833790704498667e-04 -2.8478025030819712e-04 0.0000000000000000e+00  -1.5962413292599138e-02 -4.2820590298914363e-01 0.0000000000000000e+00  2.5165714916736326e-01 1.1285794148679351e-01 0.0000000000000000e+00  3.1487551598657217e-02 -4.5020498505668738e-01 0.0000000000000000e+00  -1.0678249348978112e-01 -1.3909690079705411e-01 0.0000000000000000e+00  2.0055324288476867e-02 -6.4616686605738105e-01 0.0000000000000000e+00  5.0130967072155079e-02 -2.2606038903786282e-01 0.0000000000000000e+00  -1.0404929148457556e-02 -1.2786487716669759e-01 0.0000000000000000e+00  -3.7848784434472003e-02 -6.1074672014702425e-01 0.0000000000000000e+00  -6.0206769589463026e-03 3.0303513677280147e-01 0.0000000000000000e+00  5.1358801047687152e-03 6.6538628520506593e-01 0.0000000000000000e+00  -6.3958370933281244e-03 2.0410007263441235e-01 0.0000000000000000e+00  3.2483841160004549e-03 3.6484384157406458e-01 0.0000000000000000e+00  7.0270957676225338e-03 -5.4588027934440742e-01 0.0000000000000000e+00  -2.3817637970560763e-02 5.6825964546792496e-01 0.0000000000000000e+00  -2.7314747957362853e-02 5.6154514621764073e-01 0.0000000000000000e+00  -7.9077259146097621e-03 5.3777031055436075e-01 0.0000000000000000e+00  1.3307023359121411e-02 -5.0269090221774593e-01 0.0000000000000000e+00  3.4473744241888774e-02 -5.4833894703867392e-01 0.0000000000000000e+00  -4.4526580105978680e-03 3.6766319459688657e-01 0.0000000000000000e+00  2.0678444237995298e-02 5.9722596815412010e-01 0.0000000000000000e+00  -1.7305383621093295e-02 -5.7693574678502269e-01 0.0000000000000000e+00  -7.9312465355904291e-02 -2.5499993352398453e-01 0.0000000000000000e+00  -4.5976649127496289e-01 1.7128982512023873e-03 0.0000000000000000e+00  -2.7092799975660697e-01 -2.7581636105079108e-02 0.0000000000000000e+00  1.9718189018987350e-02 5.4515755737664151e-01 0.0000000000000000e+00  -8.7275610398408629e-02 -2.1621746386740270e-01 0.0000000000000000e+00  -1.3003435675985294e-02 -5.3032006657608410e-01 0.0000000000000000e+00  1.0394488551323187e-02 1.7704383877668559e-01 0.0000000000000000e+00  -3.0712642220994384e-03 -3.3961738407948694e-01 0.0000000000000000e+00  3.7269592125897540e-02 6.2918423954651914e-01 0.0000000000000000e+00  -1.3744504768175722e-02 -4.3435989292564153e-01 0.0000000000000000e+00  -5.8523802063766013e-02 -3.0464779223978028e-01 0.0000000000000000e+00  -1.0869596606318492e-02 -5.7811216971966273e-01 0.0000000000000000e+00  1.3527278984641476e-02 -5.2614260007901448e-01 0.0000000000000000e+00  1.2480672831073293e-02 -2.3896095483171170e-01 0.0000000000000000e+00  -5.5502300785017833e-02 1.0210038873328473e+00 0.0000000000000000e+00  4.0698721777313124e-02 5.7619165464156226e-03 0.0000000000000000e+00  2.5863532192886514e-02 -5.9781818826712319e-01 0.0000000000000000e+00  2.8956880739722654e-03 -5.5739459621964749e-01 0.0000000000000000e+00  7.8852185401585683e-03 -6.5153185129732394e-01 0.0000000000000000e+00  -1.6296419041754873e-02 -3.6205764859586198e-01 0.0000000000000000e+00  1.2071253904178630e-01 9.1086068804562759e-01 0.0000000000000000e+00  -6.5742909403412028e-02 -1.9233625375065025e-01 0.0000000000000000e+00  9.7131502148071884e-04 5.9971940135985169e-01 0.0000000000000000e+00  -2.4792010632769219e-02 2.2242194084946487e-02 0.0000000000000000e+00  3.5334840285932298e-02 -6.0447404198884769e-01 0.0000000000000000e+00  5.3374168344176506e-03 -4.8678769738264049e-01 0.0000000000000000e+00  1.3206418456923445e-02 -6.3629528883992281e-01 0.0000000000000000e+00  1.8813485346789956e-02 5.8107530417528952e-01 0.0000000000000000e+00  1.0067963270128673e-01 3.5001420457081039e-01 0.0000000000000000e+00  1.3975135164187588e-01 8.4758908494912161e-02 0.0000000000000000e+00  6.4363990862565362e-02 -5.8993684261242008e-01 0.0000000000000000e+00  2.4837931175922510e-02 7.3590000229127717e-01 0.0000000000000000e+00  -8.7706791005725850e-03 5.1895094834481070e-01 0.0000000000000000e+00  6.3556911866699713e-03 -5.6194697473206978e-01 0.0000000000000000e+00  1.4669810553432855e-02 5.2949223814208857e-01 0.0000000000000000e+00  -4.0108406924489512e-02 7.7259525124934525e-01 0.0000000000000000e+00  -2.1792979078294272e-01 4.3142563767593872e-01 0.0000000000000000e+00  3.1189640776996554e-03 -3.0798554762908725e-01 0.0000000000000000e+00  3.1873057869626975e-01 -1.7165928126737640e-01 0.0000000000000000e+00  2.3292720220638358e-02 6.3307293736711889e-01 0.0000000000000000e+00  -7.9585664702733885e-02 4.8095662455950550e-01 0.0000000000000000e+00  3.3388404239801540e-03 -5.7097417227139002e-01 0.0000000000000000e+00  2.8525112851175377e-01 9.1290932270771630e-01 0.0000000000000000e+00  2.0925140520981909e-02 2.3432214016152392e-01 0.0000000000000000e+00  4.2198886810803465e-01 6.2860024540657489e-01 0.0000000000000000e+00  6.2343901559975090e-01 1.6581538770735330e-02 0.0000000000000000e+00  -1.5276447631251715e-04 -1.9262491606163089e-04 0.0000000000000000e+00  4.9566304140336692e-02 1.9548759342225172e-01 0.0000000000000000e+00  -2.5496987669539398e-02 -3.9150653273654001e-01 0.0000000000000000e+00  -1.1301753841798176e-02 6.1633519115630464e-01 0.0000000000000000e+00  -1.0633353264650080e-04 -2.8204690302956957e-04 0.0000000000000000e+00  1.3834172682040412e-04 -1.3756234451956948e-04 0.0000000000000000e+00  6.3932301773009896e-03 5.1490289515626630e-01 0.0000000000000000e+00  6.1860861360157907e-02 -4.5337056169723444e-01 0.0000000000000000e+00  3.0256768023426504e-03 6.2316727642670799e-01 0.0000000000000000e+00  2.4227706045943261e-02 -2.1201290936229741e-01 0.0000000000000000e+00  5.0849875125522880e-02 -2.9675970778642852e-01 0.0000000000000000e+00  2.6492375296982857e-03 6.6277789866789960e-01 0.0000000000000000e+00  4.1936633382622080e-04 -4.4518096333554820e-04 0.0000000000000000e+00  5.8610177138716787e-02 -5.1521918756196305e-01 0.0000000000000000e+00  4.2580721223037438e-02 5.7693821069534812e-01 0.0000000000000000e+00  -2.1995361224532935e-02 3.2526903575987970e-01 0.0000000000000000e+00  -9.1338972980669880e-03 6.0765492952851441e-01 0.0000000000000000e+00  4.6070475412328966e-03 3.7132599336177047e-01 0.0000000000000000e+00  2.2410919883236461e-02 -1.4649473756770456e-01 0.0000000000000000e+00  1.7430445029951780e-04 -1.4780191184499500e-01 0.0000000000000000e+00  1.4904305975650721e-02 4.2224774813258448e-01 0.0000000000000000e+00  -1.4383940014119143e-02 2.5631822921166553e-01 0.0000000000000000e+00  4.7121432322367343e-04 -4.2283086289250519e-04 0.0000000000000000e+00  -7.0544518412798355e-03 -2.8106636662243095e-01 0.0000000000000000e+00  -4.8287496542862209e-03 -2.0776188841907248e-03 0.0000000000000000e+00  -3.6499097855505186e-04 -3.5680542754613189e-05 0.0000000000000000e+00  5.7405608411730388e-03 -2.9999665048844204e-01 0.0000000000000000e+00  1.4779018897446714e-02 -4.6086294718007698e-01 0.0000000000000000e+00  3.4547605475266779e-02 -5.5944856857093006e-01 0.0000000000000000e+00  8.4889808020062105e-04 -5.7135357665174613e-01 0.0000000000000000e+00  2.7403971488573861e-02 -1.4595491117617099e-01 0.0000000000000000e+00  1.8536776232871338e-02 -5.6605374389196461e-01 0.0000000000000000e+00  -1.2842722924397229e-01 5.3061496234743676e-02 0.0000000000000000e+00  -3.3634995386091472e-02 5.4671167640116847e-01 0.0000000000000000e+00  5.7553984015180221e-03 -6.0691037445856766e-01 0.0000000000000000e+00  1.0383892073599896e-01 5.7815721643870632e-01 0.0000000000000000e+00  2.6393962453985568e-02 -6.1550456087395433e-01 0.0000000000000000e+00  -4.9049335233749686e-01 1.5112563157265177e-01 0.0000000000000000e+00  -1.0342934415548392e-02 1.8759913195816943e-01 0.0000000000000000e+00  -2.7883958965490230e-02 -5.8885279757475739e-01 0.0000000000000000e+00  -2.7042471352340391e-02 4.5565205616144810e-01 0.0000000000000000e+00  -1.0145012258829998e-01 -3.1637700923026618e-01 0.000000000000000