<?xml version="1.0"?>
<VTKFile type="UnstructuredGrid"  version="0.1"  >
<UnstructuredGrid>
<Piece  NumberOfPoints="4961" NumberOfCells="9546">
<Points>
<DataArray  type="Float64"  NumberOfComponents="3"  format="ascii">0 1.5 0  -0 0.09117947244826481 0  0.0220162612375116 0.1293127555043441 0  0.05279126660105127 0.1634918616050268 0  0.09000000000000007 0.1905255888325765 0  0.1320162612375116 0.2092324335849338 0  0.1770037380811163 0.2187948169810202 0  0.2229962619188838 0.2187948169810201 0  0.2679837387624884 0.2092324335849338 0  0.3100000000000001 0.1905255888325765 0  0.3472087333989489 0.1634918616050267 0  0.3779837387624885 0.1293127555043441 0  0.4009800006813722 0.08948206147667603 0  0.4052662851173224 0.07629023443250138 0  0.4200599930048062 0.1082663100071745 0  0.4475409466961425 0.1444168863592189 0  0.4821507162738997 0.173814689612947 0  0.522270987378618 0.1950851111615262 0  0.5660257807239194 0.2072335697337205 0  0.6113691708029376 0.209692016908736 0  0.6561809510911363 0.2023454984290368 0  0.6983657725469559 0.1855375293336648 0  0.7359511198041838 0.1600540315768036 0  0.7671795437981852 0.1270865851906907 0  0.7895690044779959 0.089875012069959 0  0.7989002782867461 0.1116194513821486 0  0.825485631780658 0.1498156710261111 0  0.8592156240140376 0.1818784194956707 0  0.8987093451417441 0.2064950441012706 0  0.9423499175804944 0.222657737339227 0  0.9883506911670961 0.2297047966493422 0  1.034828388826053 0.2273477145954656 0  1.079880208154309 0.2156829903938285 0  1.121661722375201 0.1951881792237927 0  1.158462391387408 0.1667023410626976 0  1.188775591477674 0.1313916894718022 0  1.211360296672653 0.09070184667606328 0  1.225291886488074 0.04629865962039181 0  1.23 0 0  1.38 0 0  1.384807527838563 0.04574057197990705 0  1.399019999318628 0.08948206147667601 0  1.422016261237512 0.1293127555043441 0  1.452791266601051 0.1634918616050268 0  1.49 0.1905255888325765 0  1.532016261237512 0.2092324335849338 0  1.577003738081116 0.2187948169810202 0  1.622996261918884 0.2187948169810201 0  1.667983738762489 0.2092324335849338 0  1.71 0.1905255888325765 0  1.747208733398949 0.1634918616050267 0  1.763158635297163 0.1457777009465727 0  1.8 0.1732050807568878 0  1.842639353457782 0.1915979024630978 0  1.888371034217905 0.1996616316542537 0  1.934729635533386 0.1969615506024416 0  1.979215953207831 0.1836432213760548 0  2.019431718340557 0.1604246385510087 0  2.053208888623796 0.1285575219373079 0  2.078726528064682 0.08975983604009244 0  2.089496128668151 0.06017060156551748 0  2.099019999318628 0.08948206147667601 0  2.122016261237512 0.1293127555043441 0  2.152791266601051 0.1634918616050268 0  2.19 0.1905255888325765 0  2.232016261237511 0.2092324335849338 0  2.277003738081116 0.2187948169810202 0  2.322996261918884 0.2187948169810201 0  2.367983738762488 0.2092324335849338 0  2.41 0.1905255888325765 0  2.447208733398949 0.1634918616050267 0  2.457084733682728 0.1525234520934048 0  2.4821507162739 0.173814689612947 0  2.522270987378618 0.1950851111615262 0  2.56602578072392 0.2072335697337205 0  2.611369170802938 0.209692016908736 0  2.656180951091136 0.2023454984290368 0  2.698365772546956 0.1855375293336648 0  2.735951119804184 0.1600540315768036 0  2.767179543798185 0.1270865851906907 0  2.790590838130901 0.08817671132765556 0  2.805090316699118 0.04514379244431505 0  2.81 0 0  3 0 0  3 1.5 0  0 0.7956998320486358 0  0.4110904441558352 0.08887894789033324 0  0.7773699356874649 0.1101500221202465 0  1.5 1.5 0  3 0.75 0  0 0.4434396522484503 0  3 0.375 0  0 0.2673095623483576 0  0 0.1792445173983112 0  0 0.135211994923288 0  2.25 1.5 0  0.75 1.5 0  1.807676614587897 0.8837271123414687 0  1.04553857344641 0.8979441530181422 0  2.403437242208115 0.8132876225209357 0  0.5070864579510219 1.00719278150819 0  3 1.125 0  1.338035405010484 0.5883821138073757 0  2.625 1.5 0  0.3818338799394321 0.6099209340690734 0  2.067950237167102 0.5767429460037152 0  1.428016626639016 0.9663701540160734 0  1.875 1.5 0  2.136976695697423 1.114248364898298 0  1.125 1.5 0  0.375 1.5 0  0.7837785056474272 0.5924157926009261 0  2.621900904970652 1.121900904970652 0  0 1.147849916024318 0  1.717071692555337 0.550779009763445 0  1.678619011272733 1.204235418149387 0  0.8184015011321764 1.160011833453945 0  2.690771901920515 0.5625 0  1.191553529739931 1.18494431212041 0  2.361743998733192 0.516240498397431 0  2.727335050325185 0.8509414958930873 0  1.061120194703906 0.6196995992969355 0  0.269244960297408 0.8637990218922467 0  0.7609530458041533 0.8768664729047809 0  0.5625 1.286150286226427 0  0.2788879438654684 1.226607136693913 0  2.077535333020466 0.8486969269297693 0  2.4375 1.312474598220077 0  2.809426100237187 1.309426100237187 0  1.544358239139601 0.7389704993474611 0  1.434454912167138 1.210530519498476 0  2.380335199591509 1.061271835208851 0  1.926191456889599 1.252931474193008 0  0.5486378118088926 0.7757115443742588 0  0.5753328044103648 0.454959652232189 0  1.281333603460298 0.3634530521588742 0  0.9959109141311655 1.308173392725312 0  1.507364216928931 0.4358170942512657 0  1.21812632380771 0.7680504611018459 0  0 0.6195697421485431 0  1.3125 1.5 0  0.2892140007400885 0.4197188740688536 0  1.924109453869066 0.4139433366638808 0  0.9329747065756857 0.4375180073994652 0  2.243231692495831 0.684324343130167 0  2.0625 1.5 0  2.124178136191116 0.3821183579116478 0  1.923364695744858 0.7179848099571996 0  2.233034933769442 1.295537230099697 0  1.961794510294921 1.014032929092127 0  0.9133498533613748 0.7509830595402348 0  0 0.9717748740364769 0  0.1875 1.5 0  0 1.323924958012159 0  1.227107007305785 0.9862124750220198 0  1.616617139708145 0.9194004298184476 0  2.811636610329211 1.039737091854792 0  0.1901803394569171 0.5855957240372172 0  2.511165533602297 0.6467174115519351 0  2.536466024168012 0.9507486861843897 0  0.1866521719860137 1.047526440960541 0  2.74946330463778 0.3751246081287475 0  2.543804048982231 0.4145708923164018 0  0.9375 1.5 0  2.4375 1.5 0  0.5625 1.5 0  3 0.5625 0  1.6875 1.5 0  3 0.1875 0  3 0.9375 0  3 1.3125 0  2.8125 1.5 0  1.010044310702206 1.096645863828023 0  2.623488142128434 1.314011651358178 0  2.229558763998408 0.9540962470011799 0  2.845385950960257 0.65625 0  0.7525337220569124 0.4130199536593896 0  1.10537722367743 0.3921278680533664 0  0.6842290971134891 1.039833940778862 0  0.7386374643770518 1.32083913541365 0  1.553387564684306 1.08522930563603 0  1.788789291239656 1.06235950910253 0  1.559809215736361 1.334301807720895 0  1.750410104758408 0.7205088288478614 0  1.672011031024921 0.3842266692686779 0  1.77867146649739 1.349246747510312 0  1.21875 1.355246746101045 0  0.8723426006985372 1.001666865795386 0  1.380631426145093 0.7466576340788873 0  0.4259246536592668 0.3283409344703117 0  0.3444360723462823 1.008028502358495 0  0.6161474109915657 0.6198433096250735 0  0.4265019066463465 1.151756411601508 0  1.403034104827827 1.367717620859348 0  2.874684993382777 0.28125 0  2.874778249279309 0.46875 0  2.071314369495706 1.334001876948522 0  2.3 0.3730371416193449 0  1.322682484320052 1.105857305698365 0  1.563127563616163 0.5828461597844022 0  2.559040610931566 0.7958017532902765 0  1.213306121383676 0.5002133671656324 0  1.916121887065227 0.5659454196943852 0  2.207677378621353 0.5116761937353096 0  0.1257028237453774 1.235887437018238 0  0.7203062975228639 0.7304636720840537 0  0.3921145397364951 0.7663844669080319 0  2.70905347612285 0.7067207479465436 0  2.87968965213058 0.84375 0  0.1396742765227637 0.3714373577111671 0  0.1209675020841686 0.8837373530425563 0  0.1396318055029159 0.7309656161457982 0  0.4039274761094683 1.336239793581983 0  2.676470777350768 0.9877614171414461 0  0.2098223519481562 1.355491059017463 0  0.6161949108813681 0.9073080762684851 0  0.6728981805985057 1.187471545812503 0  0.4313243650936899 0.473428383024358 0  1.317579957488075 0.8752219089473544 0  1.05247475519209 0.7587740171666131 0  0.9218858728134471 0.6117854803862035 0  2.343741823603972 1.201704901656183 0  2.483180588903391 1.163054990844907 0  1.336494261441537 0.237261632693729 0  2.096334636915305 0.983917300563715 0  2.059942810014369 0.7131710752499992 0  1.940957218750955 0.8535106616369695 0  0.2735884026449029 0.6956028768230409 0  2.3791553829517 0.6794620539851567 0  2.443566922502795 0.3224565874575337 0  2.21140571429892 0.8179437442036444 0  2.863880028189143 1.175018869261394 0  1.212122991296861 0.6341965806889284 0  0.8702381850023826 1.37471255674248 0  0.4252003220264352 0.89843828480276 0  2.714126143737636 1.217200861470203 0  2.34375 1.406237299110039 0  2.71875 1.406237608026668 0  2.903224894283775 1.403224894283775 0  2.53125 1.5 0  1.444637821860123 0.3169971434781329 0  1.307097209138961 1.253815337580837 0  1.806074818262501 0.3310941379078186 0  0.09375 1.5 0  1.96875 1.5 0  1.467196512253796 0.8429542418758076 0  0.7811182225539175 0.2860230046382459 0  0.8880470276332622 0.8755399020562793 0  2.004554624687214 1.142507703833496 0  1.901808674873915 1.376717053991818 0  1.80956117606876 1.192202387775541 0  0.65625 1.5 0  2.256163989601168 1.076312782066936 0  2.35728348455407 0.9340561611988477 0  0.5508073343087652 1.161974855816299 0  1.822201850254356 0.484799098822588 0  0.6415475671733072 0.3394071993736185 0  0.6854011703162045 0.5171310296285601 0  2.010601404748645 0.3128962050875828 0  1.458109478391155 0.6494112449225909 0  1.556659288882675 1.21212759481645 0  2.15625 1.5 0  1.102952541966123 1.010721102324488 0  3 0.09375 0  2.905 0 0  1.698833571793874 0.8302602504158462 0  0.1128136071602732 0.4908067814983783 0  1.375215724596343 0.4593979824254396 0  1.667188501011557 1.033651962891267 0  0.5152717989473731 0.5573202673988191 0  0.4756630816937197 0.6823252715484635 0  2.485944291803511 0.5248037876852512 0  0.609375 1.393075143113214 0  1.657554629504312 0.6506084627130724 0  1.180547956106694 0.2992004577305749 0  1.040994897946075 0.4976964206623483 0  2.883588023402782 0.1625217501240843 0  1.437965738677728 1.09476840787
[...]
<PointData  Vectors="f_60"> 
<DataArray  type="Float64"  Name="f_60"  NumberOfComponents="3" format="ascii">-8.9332465395029092e-05 -6.4287257029437743e-04 0.0000000000000000e+00  -1.7445791711700395e-06 4.5968051028295865e-06 0.0000000000000000e+00  2.2847646137240232e-05 1.0975546879853815e-05 0.0000000000000000e+00  5.6871231543142368e-04 4.0063945298027785e-04 0.0000000000000000e+00  4.3870472806719214e-04 7.8903535934806346e-04 0.0000000000000000e+00  -6.8274490154782868e-04 6.8523592802524071e-04 0.0000000000000000e+00  1.6482046121370217e-04 9.4609541280142649e-04 0.0000000000000000e+00  -2.3482157433782127e-04 8.4951568214279094e-04 0.0000000000000000e+00  -2.9100324844848235e-04 4.7447490334532585e-04 0.0000000000000000e+00  9.4622755349058779e-04 9.9743647901749460e-05 0.0000000000000000e+00  -6.6079421844690588e-04 1.0401150090455062e-03 0.0000000000000000e+00  -1.6364326684740855e-04 7.6676287625279779e-04 0.0000000000000000e+00  -1.1364512067849168e-05 9.0454047126062138e-06 0.0000000000000000e+00  -1.0438741792241627e-04 9.6228030787036292e-05 0.0000000000000000e+00  2.6558139044893895e-04 4.0710839685632422e-04 0.0000000000000000e+00  5.0192689278498112e-06 5.8013452623942340e-04 0.0000000000000000e+00  -1.1311637641070640e-04 6.0418412051334292e-04 0.0000000000000000e+00  6.7032847116887040e-04 1.0022121912145222e-03 0.0000000000000000e+00  -5.6289433411792759e-05 7.7690507764592142e-04 0.0000000000000000e+00  2.9976423482784158e-04 6.3022154128026771e-04 0.0000000000000000e+00  2.9543335247513854e-05 8.5933584663583698e-04 0.0000000000000000e+00  -4.0053901811716889e-04 9.5580962302825459e-04 0.0000000000000000e+00  -1.6279596504967125e-04 7.0910978253692998e-04 0.0000000000000000e+00  -1.1133285091553131e-04 4.5297224921332456e-04 0.0000000000000000e+00  5.5739830235936548e-05 8.2907561567680755e-05 0.0000000000000000e+00  -1.2139803375953420e-04 2.2504349700819748e-04 0.0000000000000000e+00  3.5331014647429788e-04 9.1521931937064689e-04 0.0000000000000000e+00  7.3320129767416402e-04 1.1394954472033945e-03 0.0000000000000000e+00  -8.3321084178621704e-04 3.8805613321205560e-04 0.0000000000000000e+00  4.0739727805273838e-04 7.9033768232268198e-04 0.0000000000000000e+00  8.3809027109481947e-05 7.6528754995469834e-04 0.0000000000000000e+00  -1.1448752642457234e-04 8.4552998264979674e-04 0.0000000000000000e+00  3.5731758805519081e-04 7.3871372095600637e-04 0.0000000000000000e+00  -4.1354656754023176e-04 1.0785140583572620e-03 0.0000000000000000e+00  3.1808668144644048e-04 -1.6478213551049205e-04 0.0000000000000000e+00  5.6715758373680021e-04 -4.8986367788368722e-04 0.0000000000000000e+00  -3.0178163113690412e-04 9.3158182370454761e-04 0.0000000000000000e+00  3.2317217728471213e-04 1.7185921398776660e-03 0.0000000000000000e+00  6.9506921372230026e-04 4.4116238860392377e-04 0.0000000000000000e+00  1.7433333546950543e-04 2.2045311473813583e-04 0.0000000000000000e+00  -2.7325890639573753e-05 5.1483153894558498e-04 0.0000000000000000e+00  -1.2246269441760693e-04 4.8324890750763635e-04 0.0000000000000000e+00  -1.3509940098993835e-04 5.6108101262392258e-04 0.0000000000000000e+00  2.2364307391340243e-04 9.0861349704383953e-04 0.0000000000000000e+00  -2.4336418426065647e-04 6.2387471534653869e-04 0.0000000000000000e+00  1.9471407558652797e-04 6.7745669006773050e-04 0.0000000000000000e+00  -1.8001660054890749e-06 9.6164255212066653e-04 0.0000000000000000e+00  -3.7928652182978419e-04 9.7587781581666552e-04 0.0000000000000000e+00  4.4084352483959524e-04 5.8048396796390404e-04 0.0000000000000000e+00  3.0297528582888766e-04 6.1825373311116913e-04 0.0000000000000000e+00  -5.1005800600715276e-04 4.2324808241936174e-04 0.0000000000000000e+00  -5.0280277110849477e-04 2.6385504839893001e-04 0.0000000000000000e+00  -3.3354887821273585e-04 5.6190438728777282e-04 0.0000000000000000e+00  6.5963442757444989e-04 6.9471432637706505e-04 0.0000000000000000e+00  -1.4895826458380948e-04 8.9452131275857263e-04 0.0000000000000000e+00  2.1820531656294197e-04 8.9841502579389042e-04 0.0000000000000000e+00  6.6297533821678195e-04 5.3867926958482020e-04 0.0000000000000000e+00  -5.5238447071125096e-04 7.5400122550881802e-04 0.0000000000000000e+00  -4.4977543406441107e-04 1.6479052657408609e-04 0.0000000000000000e+00  -3.9393157071254224e-05 9.4016227437980761e-06 0.0000000000000000e+00  8.5131266094063100e-06 -8.3722387112048172e-06 0.0000000000000000e+00  -2.0299403870888643e-05 5.0774655097622841e-05 0.0000000000000000e+00  -9.8119929531207580e-05 7.6434029331132379e-05 0.0000000000000000e+00  6.2790414674749370e-04 6.6479772827846939e-04 0.0000000000000000e+00  3.2013379615161545e-04 8.1384264729433495e-04 0.0000000000000000e+00  -3.1724320930992018e-04 6.7956320721992893e-04 0.0000000000000000e+00  2.6764553578150532e-04 8.4236755268680941e-04 0.0000000000000000e+00  2.5481467977399384e-06 8.8748172052691425e-04 0.0000000000000000e+00  4.2073185959972011e-04 4.3149513630079986e-04 0.0000000000000000e+00  3.4367664662848687e-04 9.2293899731323004e-04 0.0000000000000000e+00  5.9574981076851061e-04 7.3713558595189148e-04 0.0000000000000000e+00  6.1008960702357417e-04 4.7746170688971309e-04 0.0000000000000000e+00  8.5305312158445701e-04 6.8110594241342062e-04 0.0000000000000000e+00  7.4814931585410875e-04 8.4817106084871159e-04 0.0000000000000000e+00  1.0195670219197233e-03 5.9548398536680102e-04 0.0000000000000000e+00  7.2841769596762053e-04 -3.5036666800711535e-04 0.0000000000000000e+00  1.0993940442737293e-03 -3.1703208561414790e-04 0.0000000000000000e+00  -2.8269455540299503e-04 3.4618157190130621e-06 0.0000000000000000e+00  -2.2587016724223474e-04 -1.9069756981500668e-04 0.0000000000000000e+00  5.5211807503162771e-04 -6.0667165633093917e-04 0.0000000000000000e+00  5.4060167366980075e-04 -4.3916270074034655e-04 0.0000000000000000e+00  1.1095650752950895e-04 -1.1307917248825998e-04 0.0000000000000000e+00  -1.7713726471627963e-05 -5.5238099753168645e-05 0.0000000000000000e+00  -1.1339556555800956e-02 -1.6167879557628345e-03 0.0000000000000000e+00  -3.3160370613122040e-03 9.2774707909179684e-04 0.0000000000000000e+00  4.0545509171142942e-06 -4.8934265848607959e-06 0.0000000000000000e+00  -4.1124590666943126e-05 9.7733755137469381e-06 0.0000000000000000e+00  -2.1554557403070682e-04 1.0049236470289017e-04 0.0000000000000000e+00  1.9003869860632897e-04 -7.6679777046812295e-04 0.0000000000000000e+00  1.5098806996230614e-04 -3.6960179933181574e-04 0.0000000000000000e+00  1.8396424327868393e-05 5.4297759265864846e-05 0.0000000000000000e+00  -2.2728720303447740e-03 3.6071104934481698e-05 0.0000000000000000e+00  3.7616542049607186e-04 1.2819183596366871e-03 0.0000000000000000e+00  3.2447423314345262e-04 6.4499059804027303e-04 0.0000000000000000e+00  2.3927635745514270e-05 1.9475556408893344e-05 0.0000000000000000e+00  -1.3028666010903199e-04 -7.6640196567129293e-04 0.0000000000000000e+00  1.8895602812536293e-04 -2.3694926090510093e-04 0.0000000000000000e+00  1.8485080934052486e-02 1.9079291571480572e+00 0.0000000000000000e+00  1.4227845038207823e-02 -1.7694656158228819e+00 0.0000000000000000e+00  5.2190502354422429e-02 2.3515612355606486e+00 0.0000000000000000e+00  -1.5846267737798240e-02 -6.6529782204143373e-01 0.0000000000000000e+00  1.8783381175227520e-03 1.3146763357226124e-04 0.0000000000000000e+00  8.4398968156284865e-02 -1.6821796136104794e+00 0.0000000000000000e+00  3.0992405417310144e-04 -8.0180452531689852e-04 0.0000000000000000e+00  7.0487190386482698e-02 -2.2200463379859675e-01 0.0000000000000000e+00  -5.8815293979379069e-02 1.6518139747851377e+00 0.0000000000000000e+00  -7.5597696540475180e-04 1.5929762713631232e-01 0.0000000000000000e+00  3.5204729620737284e-04 -9.1566207586923356e-04 0.0000000000000000e+00  1.1624990972252557e-01 1.5991122245970217e+00 0.0000000000000000e+00  -2.0939901313858224e-04 -5.9165557881470500e-04 0.0000000000000000e+00  1.4393214643548908e-04 -7.3083334851260209e-04 0.0000000000000000e+00  5.8347332768139221e-02 -1.4002725143868282e+00 0.0000000000000000e+00  4.9607350192608729e-01 1.8035929258509623e-01 0.0000000000000000e+00  -1.9047868641522907e-05 7.8982492744445157e-08 0.0000000000000000e+00  8.9529611705150957e-03 -2.2945280510728946e-01 0.0000000000000000e+00  -2.0109595462949818e-02 -1.4097210446546882e+00 0.0000000000000000e+00  -7.1001462516635847e-02 -1.8654137528647943e-01 0.0000000000000000e+00  -3.5742711748956618e-01 2.7326786480398688e+00 0.0000000000000000e+00  -8.1320736710420505e-02 1.7888428821674014e+00 0.0000000000000000e+00  -2.2634919191930819e-01 1.7714779497827189e+00 0.0000000000000000e+00  1.7266059763257527e-01 2.6630555496372121e+00 0.0000000000000000e+00  6.5191818876228130e-02 -1.7339969911347850e+00 0.0000000000000000e+00  8.0498804813859907e-03 1.3766090213927933e+00 0.0000000000000000e+00  1.6584266046618616e-02 -1.7548052454655267e+00 0.0000000000000000e+00  -1.3248926986425308e-01 1.2961874637461273e+00 0.0000000000000000e+00  -7.7484393276035721e-02 1.6022489108858662e+00 0.0000000000000000e+00  3.7537906926335560e-02 1.8517954529034644e+00 0.0000000000000000e+00  4.4988261097136584e-01 1.7541577742617249e+00 0.0000000000000000e+00  1.1890108823355900e+00 5.2636490782406431e-01 0.0000000000000000e+00  2.5583292808026778e-02 1.1529889858252191e+00 0.0000000000000000e+00  -6.5962304974837321e-02 4.3401729806491185e-01 0.0000000000000000e+00  2.5180194008542922e-01 2.0301398930871142e+00 0.0000000000000000e+00  3.8981110668304439e-02 -1.4674370903810361e+00 0.0000000000000000e+00  3.0668122225676109e-02 7.9809897538419727e-01 0.0000000000000000e+00  9.1473817880475497e-02 1.4585522147319565e+00 0.0000000000000000e+00  1.6835166104036473e-01 -6.9273429070853473e-02 0.0000000000000000e+00  -8.0343488440456190e-02 -8.2188011425282625e-01 0.0000000000000000e+00  4.8368005211322118e-02 1.7496483956622053e+00 0.0000000000000000e+00  2.8383034662300424e-02 1.7093396416713538e+00 0.0000000000000000e+00  2.4263269485250955e-06 -7.9860986767004483e-06 0.0000000000000000e+00  -7.5526142663855426e-04 -3.2957856931016137e-04 0.0000000000000000e+00  1.1329010559759481e-01 1.7084591454152200e+00 0.0000000000000000e+00  -8.1248324650296910e-02 -1.4319509238592762e+00 0.0000000000000000e+00  4.9223479092954894e-02 1.4278700464335805e+00 0.0000000000000000e+00  -9.6753903808499894e-02 -1.3949460983967497e+00 0.0000000000000000e+00  -9.8031450036281968e-04 -9.0381971917009992e-04 0.0000000000000000e+00  -1.7079414667350909e-01 1.6201280648663288e+00 0.0000000000000000e+00  -1.3715997329364371e-02 -1.3412522519221566e+00 0.0000000000000000e+00  2.0665949313436349e-01 -1.4426107376250639e+00 0.0000000000000000e+00  4.1466950481185788e-02 -1.5755639448843597e+00 0.0000000000000000e+00  2.7722853516467083e-02 1.7377499442633959e+00 0.0000000000000000e+00  1.2394886411737185e-05 -1.7971143390871332e-05 0.0000000000000000e+00  6.0085288432217216e-04 -1.1045864764839168e-03 0.0000000000000000e+00  4.6144662440881857e-05 -2.7781674909615068e-04 0.0000000000000000e+00  -2.1257796950829619e-02 1.5356466057885791e+00 0.0000000000000000e+00  1.2655262477497840e-02 -1.2834917311002481e+00 0.0000000000000000e+00  4.6444065762263725e-01 3.2892309928138158e-01 0.0000000000000000e+00  5.7410896826456718e-02 -1.2619919394667414e+00 0.0000000000000000e+00  -2.5527402370844876e-01 -6.5131582480638350e-01 0.0000000000000000e+00  1.4696381603581293e-01 -9.5977620464178892e-01 0.0000000000000000e+00  -1.0032895155534561e-02 -1.3384227689039914e+00 0.0000000000000000e+00  -9.9811782367430335e-01 1.0351299898259321e+00 0.0000000000000000e+00  -6.2478666233464664e-01 -1.1353695830841284e+00 0.0000000000000000e+00  6.9113583310366803e-04 -6.9100779048293832e-04 0.0000000000000000e+00  3.7938031241838160e-04 -7.0937049601437483e-04 0.0000000000000000e+00  -6.6501852154574048e-04 -8.2205501340694919e-04 0.0000000000000000e+00  -1.5232178630639321e-03 -4.5802825070184180e-04 0.0000000000000000e+00  6.1145219599307156e-04 -8.1292519403118515e-04 0.0000000000000000e+00  -5.2854477731191793e-03 -2.7490801099858841e-04 0.0000000000000000e+00  1.1031791700815137e-03 -1.3527588318704940e-04 0.0000000000000000e+00  1.6634513051654435e-03 1.0001153706652972e-04 0.0000000000000000e+00  3.1877200762524078e-03 -1.1619892690827838e-03 0.0000000000000000e+00  -3.9788525811871749e-02 -1.2210002803051609e+00 0.0000000000000000e+00  6.8451216748752686e-01 -2.3649033150551763e-01 0.0000000000000000e+00  6.7654736699660961e-02 -1.2435159436405245e+00 0.0000000000000000e+00  -3.8191461710742530e-01 -3.8088990293933112e-01 0.0000000000000000e+00  5.9398171811770276e-02 -1.7957097899103405e+00 0.0000000000000000e+00  1.4496860408091725e-01 -7.1680780092348317e-01 0.0000000000000000e+00  -2.8695553573272279e-02 -3.7793047464566248e-01 0.0000000000000000e+00  -1.0266135356267811e-01 -1.7323708971862837e+00 0.0000000000000000e+00  -2.2346187858386057e-02 8.3058646913261580e-01 0.0000000000000000e+00  1.1327844244762355e-02 1.8567472790278086e+00 0.0000000000000000e+00  -1.4600754122849564e-02 5.2308681023016401e-01 0.0000000000000000e+00  1.4737392118477324e-02 1.0043057943493645e+00 0.0000000000000000e+00  2.3952695036514256e-02 -1.5193385269837665e+00 0.0000000000000000e+00  -8.2508428210712956e-02 1.5777376321569367e+00 0.0000000000000000e+00  -7.5360222181419342e-02 1.5105418855645651e+00 0.0000000000000000e+00  -3.2016452977515722e-02 1.5114912567836027e+00 0.0000000000000000e+00  4.6770510559425708e-02 -1.4170538144593423e+00 0.0000000000000000e+00  9.7609217442613389e-02 -1.4562834276746865e+00 0.0000000000000000e+00  -1.8230814805948084e-02 1.0197067403981326e+00 0.0000000000000000e+00  5.4629101011120250e-02 1.6787360168637533e+00 0.0000000000000000e+00  -4.3369788342331399e-02 -1.6216828691987719e+00 0.0000000000000000e+00  -2.3219057162849974e-01 -6.1587878807733287e-01 0.0000000000000000e+00  -1.1550408725782206e+00 7.8375103562774551e-01 0.0000000000000000e+00  -8.0418621242972765e-01 3.5097976389179414e-01 0.0000000000000000e+00  3.4184124951338365e-02 1.4830685513148358e+00 0.0000000000000000e+00  -2.2792373013067813e-01 -4.1965620583151442e-01 0.0000000000000000e+00  -2.9934885770115632e-02 -1.4972938931104642e+00 0.0000000000000000e+00  3.4720420108224452e-02 5.1115360328788750e-01 0.0000000000000000e+00  -5.9205750345457532e-02 -9.5831020347473361e-01 0.0000000000000000e+00  8.5328793355370094e-02 1.7884188473713487e+00 0.0000000000000000e+00  -4.2170934352877054e-02 -1.2245443140860368e+00 0.0000000000000000e+00  -1.7164157264898669e-01 -9.3558215937814260e-01 0.0000000000000000e+00  -2.3694900104539722e-02 -1.6085942687524171e+00 0.0000000000000000e+00  4.4580264705217094e-02 -1.4471582210972576e+00 0.0000000000000000e+00  3.9203620190285317e-02 -6.3422400305274218e-01 0.0000000000000000e+00  -9.2634286581467509e-02 2.7837892710077159e+00 0.0000000000000000e+00  4.3533760090213487e-02 -2.2688281131052708e-02 0.0000000000000000e+00  8.4373471420459423e-02 -1.6274543536326294e+00 0.0000000000000000e+00  1.1910638219399109e-02 -1.5451411498783740e+00 0.0000000000000000e+00  2.7887454003939452e-02 -1.8104558736114835e+00 0.0000000000000000e+00  -5.4724279224077306e-02 -1.0613005632601480e+00 0.0000000000000000e+00  3.9139275263371309e-01 2.3988003454485267e+00 0.0000000000000000e+00  -1.9429600758563173e-01 -4.4553061132098720e-01 0.0000000000000000e+00  -5.5996732118658169e-03 1.6752750085563193e+00 0.0000000000000000e+00  -7.3591127893146813e-02 3.8739459653127522e-03 0.0000000000000000e+00  1.1423437838468332e-01 -1.6443843871732398e+00 0.0000000000000000e+00  2.1154051081193299e-02 -1.3486968107447845e+00 0.0000000000000000e+00  4.3372252624769750e-02 -1.7756653345615430e+00 0.0000000000000000e+00  5.2491531907893532e-02 1.6383309786300388e+00 0.0000000000000000e+00  2.8242218560468096e-01 7.7440981874327353e-01 0.0000000000000000e+00  3.7695369086423663e-01 5.1674513622962137e-01 0.0000000000000000e+00  1.5657148578826835e-01 -1.5699328505352039e+00 0.0000000000000000e+00  7.9470543619794040e-02 2.0472828941997609e+00 0.0000000000000000e+00  -1.0127254754223991e-02 1.4529480745052250e+00 0.0000000000000000e+00  1.2510344233184582e-02 -1.5696572052265869e+00 0.0000000000000000e+00  3.6453611636439572e-02 1.4667764823299574e+00 0.0000000000000000e+00  -7.5882962318908537e-02 2.1635403751629574e+00 0.0000000000000000e+00  -5.9826357402338848e-01 8.3081133234814808e-01 0.0000000000000000e+00  -8.3650202458536195e-03 -8.6245574747711562e-01 0.0000000000000000e+00  7.8685322905095623e-01 -5.6106454704605346e-01 0.0000000000000000e+00  5.4503609488671965e-02 1.7845273890349334e+00 0.0000000000000000e+00  -2.4158945310217680e-01 1.3709132658904204e+00 0.0000000000000000e+00  1.6380243133991869e-02 -1.5827433128836970e+00 0.0000000000000000e+00  8.4430797870791219e-01 2.6129821675222251e+00 0.0000000000000000e+00  -1.7472036579008490e-02 5.0156296143543055e-01 0.0000000000000000e+00  1.0224118455723445e+00 1.7708046452335953e+00 0.0000000000000000e+00  1.7172910160531372e+00 -9.3410326250563613e-01 0.0000000000000000e+00  -4.8647488180247927e-04 -8.1002917649246168e-04 0.0000000000000000e+00  1.2632260333165976e-01 4.8325608196879932e-01 0.0000000000000000e+00  -6.7386583177092396e-02 -1.1417335100782768e+00 0.0000000000000000e+00  -3.2250796198543555e-02 1.7247893042163951e+00 0.0000000000000000e+00  -3.7450127338342160e-04 -7.2478424705168870e-04 0.0000000000000000e+00  4.5681385555862441e-04 -3.4962588749830515e-04 0.0000000000000000e+00  1.7393571962172026e-02 1.4245392939424333e+00 0.0000000000000000e+00  2.0131836909153322e-01 -1.2640208941934337e+00 0.0000000000000000e+00  -2.2461356821278924e-04 1.7379528552250736e+00 0.0000000000000000e+00  6.6787377718898339e-02 -6.4386814882929944e-01 0.0000000000000000e+00  1.4768086551991322e-01 -8.0387447752481711e-01 0.0000000000000000e+00  -1.1140977016539423e-03 1.8556019398621100e+00 0.0000000000000000e+00  5.4266928819151098e-04 -7.5610322640477117e-04 0.0000000000000000e+00  1.4341743903252047e-01 -1.4746737059970996e+00 0.0000000000000000e+00  1.3964839562820028e-01 1.5379788192190140e+00 0.0000000000000000e+00  -7.2105124717867619e-02 9.5194168502573551e-01 0.0000000000000000e+00  -2.1867964865466681e-02 1.6745146197376002e+00 0.0000000000000000e+00  2.2419896191274862e-02 1.0646792599249182e+00 0.0000000000000000e+00  6.4274915708516123e-02 -3.5705180900333244e-01 0.0000000000000000e+00  2.3051066711575866e-02 -3.4958154970700772e-01 0.0000000000000000e+00  4.8896938813320433e-02 1.1448019205118545e+00 0.0000000000000000e+00  -4.6579246486524652e-02 6.8040116605750711e-01 0.0000000000000000e+00  7.7410690595726428e-04 -8.7264846079153043e-04 0.0000000000000000e+00  -1.7168162695096748e-02 -7.6667228811065269e-01 0.0000000000000000e+00  -1.0406070795590141e-02 -1.2332322567356513e-03 0.0000000000000000e+00  -5.7313000450408746e-04 1.6474678108270826e-04 0.0000000000000000e+00  1.9258546413176550e-02 -8.4849218367991985e-01 0.0000000000000000e+00  5.4063003009043799e-02 -1.2528297162563600e+00 0.0000000000000000e+00  1.1866575571365270e-01 -1.5757970741499612e+00 0.0000000000000000e+00  6.3968325561026412e-03 -1.5985682790274673e+00 0.0000000000000000e+00  8.5899193033646362e-02 -4.6401372998392520e-01 0.0000000000000000e+00  6.2106796915240493e-02 -1.5954139327312893e+00 0.0000000000000000e+00  -3.8742298048236268e-01 -1.2312449566197714e-01 0.0000000000000000e+00  -7.9087145164551953e-02 1.4600879257387536e+00 0.0000000000000000e+00  2.0957201310202803e-02 -1.6942786202230491e+00 0.0000000000000000e+00  3.2100122388464092e-01 1.5587978389401427e+00 0.0000000000000000e+00  7.5434116166199605e-02 -1.7140037054110604e+00 0.0000000000000000e+00  -8.3322236304037711e-01 1.0326304778939075e+00 0.0000000000000000e+00  -3.0887653951588240e-02 5.4645805554000293e-01 0.0000000000000000e+00  -7.0391251727194445e-02 -1.6168111061747721e+00 0.0000000000000000e+00  -8.5871640548563027e-02 1.2265275817112429e+00 0.0000000000000000e+00  -2.9544946134810818e-01 -7.6793382543370070e-01 0.00