<?xml version="1.0"?>
<VTKFile type="UnstructuredGrid"  version="0.1"  >
<UnstructuredGrid>
<Piece  NumberOfPoints="4961" NumberOfCells="9546">
<Points>
<DataArray  type="Float64"  NumberOfComponents="3"  format="ascii">0 1.5 0  -0 0.09117947244826481 0  0.0220162612375116 0.1293127555043441 0  0.05279126660105127 0.1634918616050268 0  0.09000000000000007 0.1905255888325765 0  0.1320162612375116 0.2092324335849338 0  0.1770037380811163 0.2187948169810202 0  0.2229962619188838 0.2187948169810201 0  0.2679837387624884 0.2092324335849338 0  0.3100000000000001 0.1905255888325765 0  0.3472087333989489 0.1634918616050267 0  0.3779837387624885 0.1293127555043441 0  0.4009800006813722 0.08948206147667603 0  0.4052662851173224 0.07629023443250138 0  0.4200599930048062 0.1082663100071745 0  0.4475409466961425 0.1444168863592189 0  0.4821507162738997 0.173814689612947 0  0.522270987378618 0.1950851111615262 0  0.5660257807239194 0.2072335697337205 0  0.6113691708029376 0.209692016908736 0  0.6561809510911363 0.2023454984290368 0  0.6983657725469559 0.1855375293336648 0  0.7359511198041838 0.1600540315768036 0  0.7671795437981852 0.1270865851906907 0  0.7895690044779959 0.089875012069959 0  0.7989002782867461 0.1116194513821486 0  0.825485631780658 0.1498156710261111 0  0.8592156240140376 0.1818784194956707 0  0.8987093451417441 0.2064950441012706 0  0.9423499175804944 0.222657737339227 0  0.9883506911670961 0.2297047966493422 0  1.034828388826053 0.2273477145954656 0  1.079880208154309 0.2156829903938285 0  1.121661722375201 0.1951881792237927 0  1.158462391387408 0.1667023410626976 0  1.188775591477674 0.1313916894718022 0  1.211360296672653 0.09070184667606328 0  1.225291886488074 0.04629865962039181 0  1.23 0 0  1.38 0 0  1.384807527838563 0.04574057197990705 0  1.399019999318628 0.08948206147667601 0  1.422016261237512 0.1293127555043441 0  1.452791266601051 0.1634918616050268 0  1.49 0.1905255888325765 0  1.532016261237512 0.2092324335849338 0  1.577003738081116 0.2187948169810202 0  1.622996261918884 0.2187948169810201 0  1.667983738762489 0.2092324335849338 0  1.71 0.1905255888325765 0  1.747208733398949 0.1634918616050267 0  1.763158635297163 0.1457777009465727 0  1.8 0.1732050807568878 0  1.842639353457782 0.1915979024630978 0  1.888371034217905 0.1996616316542537 0  1.934729635533386 0.1969615506024416 0  1.979215953207831 0.1836432213760548 0  2.019431718340557 0.1604246385510087 0  2.053208888623796 0.1285575219373079 0  2.078726528064682 0.08975983604009244 0  2.089496128668151 0.06017060156551748 0  2.099019999318628 0.08948206147667601 0  2.122016261237512 0.1293127555043441 0  2.152791266601051 0.1634918616050268 0  2.19 0.1905255888325765 0  2.232016261237511 0.2092324335849338 0  2.277003738081116 0.2187948169810202 0  2.322996261918884 0.2187948169810201 0  2.367983738762488 0.2092324335849338 0  2.41 0.1905255888325765 0  2.447208733398949 0.1634918616050267 0  2.457084733682728 0.1525234520934048 0  2.4821507162739 0.173814689612947 0  2.522270987378618 0.1950851111615262 0  2.56602578072392 0.2072335697337205 0  2.611369170802938 0.209692016908736 0  2.656180951091136 0.2023454984290368 0  2.698365772546956 0.1855375293336648 0  2.735951119804184 0.1600540315768036 0  2.767179543798185 0.1270865851906907 0  2.790590838130901 0.08817671132765556 0  2.805090316699118 0.04514379244431505 0  2.81 0 0  3 0 0  3 1.5 0  0 0.7956998320486358 0  0.4110904441558352 0.08887894789033324 0  0.7773699356874649 0.1101500221202465 0  1.5 1.5 0  3 0.75 0  0 0.4434396522484503 0  3 0.375 0  0 0.2673095623483576 0  0 0.1792445173983112 0  0 0.135211994923288 0  2.25 1.5 0  0.75 1.5 0  1.807676614587897 0.8837271123414687 0  1.04553857344641 0.8979441530181422 0  2.403437242208115 0.8132876225209357 0  0.5070864579510219 1.00719278150819 0  3 1.125 0  1.338035405010484 0.5883821138073757 0  2.625 1.5 0  0.3818338799394321 0.6099209340690734 0  2.067950237167102 0.5767429460037152 0  1.428016626639016 0.9663701540160734 0  1.875 1.5 0  2.136976695697423 1.114248364898298 0  1.125 1.5 0  0.375 1.5 0  0.7837785056474272 0.5924157926009261 0  2.621900904970652 1.121900904970652 0  0 1.147849916024318 0  1.717071692555337 0.550779009763445 0  1.678619011272733 1.204235418149387 0  0.8184015011321764 1.160011833453945 0  2.690771901920515 0.5625 0  1.191553529739931 1.18494431212041 0  2.361743998733192 0.516240498397431 0  2.727335050325185 0.8509414958930873 0  1.061120194703906 0.6196995992969355 0  0.269244960297408 0.8637990218922467 0  0.7609530458041533 0.8768664729047809 0  0.5625 1.286150286226427 0  0.2788879438654684 1.226607136693913 0  2.077535333020466 0.8486969269297693 0  2.4375 1.312474598220077 0  2.809426100237187 1.309426100237187 0  1.544358239139601 0.7389704993474611 0  1.434454912167138 1.210530519498476 0  2.380335199591509 1.061271835208851 0  1.926191456889599 1.252931474193008 0  0.5486378118088926 0.7757115443742588 0  0.5753328044103648 0.454959652232189 0  1.281333603460298 0.3634530521588742 0  0.9959109141311655 1.308173392725312 0  1.507364216928931 0.4358170942512657 0  1.21812632380771 0.7680504611018459 0  0 0.6195697421485431 0  1.3125 1.5 0  0.2892140007400885 0.4197188740688536 0  1.924109453869066 0.4139433366638808 0  0.9329747065756857 0.4375180073994652 0  2.243231692495831 0.684324343130167 0  2.0625 1.5 0  2.124178136191116 0.3821183579116478 0  1.923364695744858 0.7179848099571996 0  2.233034933769442 1.295537230099697 0  1.961794510294921 1.014032929092127 0  0.9133498533613748 0.7509830595402348 0  0 0.9717748740364769 0  0.1875 1.5 0  0 1.323924958012159 0  1.227107007305785 0.9862124750220198 0  1.616617139708145 0.9194004298184476 0  2.811636610329211 1.039737091854792 0  0.1901803394569171 0.5855957240372172 0  2.511165533602297 0.6467174115519351 0  2.536466024168012 0.9507486861843897 0  0.1866521719860137 1.047526440960541 0  2.74946330463778 0.3751246081287475 0  2.543804048982231 0.4145708923164018 0  0.9375 1.5 0  2.4375 1.5 0  0.5625 1.5 0  3 0.5625 0  1.6875 1.5 0  3 0.1875 0  3 0.9375 0  3 1.3125 0  2.8125 1.5 0  1.010044310702206 1.096645863828023 0  2.623488142128434 1.314011651358178 0  2.229558763998408 0.9540962470011799 0  2.845385950960257 0.65625 0  0.7525337220569124 0.4130199536593896 0  1.10537722367743 0.3921278680533664 0  0.6842290971134891 1.039833940778862 0  0.7386374643770518 1.32083913541365 0  1.553387564684306 1.08522930563603 0  1.788789291239656 1.06235950910253 0  1.559809215736361 1.334301807720895 0  1.750410104758408 0.7205088288478614 0  1.672011031024921 0.3842266692686779 0  1.77867146649739 1.349246747510312 0  1.21875 1.355246746101045 0  0.8723426006985372 1.001666865795386 0  1.380631426145093 0.7466576340788873 0  0.4259246536592668 0.3283409344703117 0  0.3444360723462823 1.008028502358495 0  0.6161474109915657 0.6198433096250735 0  0.4265019066463465 1.151756411601508 0  1.403034104827827 1.367717620859348 0  2.874684993382777 0.28125 0  2.874778249279309 0.46875 0  2.071314369495706 1.334001876948522 0  2.3 0.3730371416193449 0  1.322682484320052 1.105857305698365 0  1.563127563616163 0.5828461597844022 0  2.559040610931566 0.7958017532902765 0  1.213306121383676 0.5002133671656324 0  1.916121887065227 0.5659454196943852 0  2.207677378621353 0.5116761937353096 0  0.1257028237453774 1.235887437018238 0  0.7203062975228639 0.7304636720840537 0  0.3921145397364951 0.7663844669080319 0  2.70905347612285 0.7067207479465436 0  2.87968965213058 0.84375 0  0.1396742765227637 0.3714373577111671 0  0.1209675020841686 0.8837373530425563 0  0.1396318055029159 0.7309656161457982 0  0.4039274761094683 1.336239793581983 0  2.676470777350768 0.9877614171414461 0  0.2098223519481562 1.355491059017463 0  0.6161949108813681 0.9073080762684851 0  0.6728981805985057 1.187471545812503 0  0.4313243650936899 0.473428383024358 0  1.317579957488075 0.8752219089473544 0  1.05247475519209 0.7587740171666131 0  0.9218858728134471 0.6117854803862035 0  2.343741823603972 1.201704901656183 0  2.483180588903391 1.163054990844907 0  1.336494261441537 0.237261632693729 0  2.096334636915305 0.983917300563715 0  2.059942810014369 0.7131710752499992 0  1.940957218750955 0.8535106616369695 0  0.2735884026449029 0.6956028768230409 0  2.3791553829517 0.6794620539851567 0  2.443566922502795 0.3224565874575337 0  2.21140571429892 0.8179437442036444 0  2.863880028189143 1.175018869261394 0  1.212122991296861 0.6341965806889284 0  0.8702381850023826 1.37471255674248 0  0.4252003220264352 0.89843828480276 0  2.714126143737636 1.217200861470203 0  2.34375 1.406237299110039 0  2.71875 1.406237608026668 0  2.903224894283775 1.403224894283775 0  2.53125 1.5 0  1.444637821860123 0.3169971434781329 0  1.307097209138961 1.253815337580837 0  1.806074818262501 0.3310941379078186 0  0.09375 1.5 0  1.96875 1.5 0  1.467196512253796 0.8429542418758076 0  0.7811182225539175 0.2860230046382459 0  0.8880470276332622 0.8755399020562793 0  2.004554624687214 1.142507703833496 0  1.901808674873915 1.376717053991818 0  1.80956117606876 1.192202387775541 0  0.65625 1.5 0  2.256163989601168 1.076312782066936 0  2.35728348455407 0.9340561611988477 0  0.5508073343087652 1.161974855816299 0  1.822201850254356 0.484799098822588 0  0.6415475671733072 0.3394071993736185 0  0.6854011703162045 0.5171310296285601 0  2.010601404748645 0.3128962050875828 0  1.458109478391155 0.6494112449225909 0  1.556659288882675 1.21212759481645 0  2.15625 1.5 0  1.102952541966123 1.010721102324488 0  3 0.09375 0  2.905 0 0  1.698833571793874 0.8302602504158462 0  0.1128136071602732 0.4908067814983783 0  1.375215724596343 0.4593979824254396 0  1.667188501011557 1.033651962891267 0  0.5152717989473731 0.5573202673988191 0  0.4756630816937197 0.6823252715484635 0  2.485944291803511 0.5248037876852512 0  0.609375 1.393075143113214 0  1.657554629504312 0.6506084627130724 0  1.180547956106694 0.2992004577305749 0  1.040994897946075 0.4976964206623483 0  2.883588023402782 0.1625217501240843 0  1.437965738677728 1.09476840787
[...]
<PointData  Vectors="f_60"> 
<DataArray  type="Float64"  Name="f_60"  NumberOfComponents="3" format="ascii">-1.8136590798756205e-04 -5.8927118671839383e-04 0.0000000000000000e+00  -3.0143260693022473e-06 2.2416661596783707e-06 0.0000000000000000e+00  1.2947079521277587e-05 4.7908743934256924e-06 0.0000000000000000e+00  5.7958403868603296e-04 3.5297759622537433e-04 0.0000000000000000e+00  4.9948411331586279e-04 8.7007618574314776e-04 0.0000000000000000e+00  -7.4257381902483163e-04 7.1484200212494381e-04 0.0000000000000000e+00  6.6491042074821042e-05 9.7493452751789872e-04 0.0000000000000000e+00  -2.1918220632682108e-04 8.9975620690391158e-04 0.0000000000000000e+00  -2.6617821185523767e-04 4.4350685532125271e-04 0.0000000000000000e+00  1.0007498905711411e-03 1.4941618325805837e-04 0.0000000000000000e+00  -6.5157841561744594e-04 1.1259609656912922e-03 0.0000000000000000e+00  -1.2176060093682585e-04 7.2970911465701374e-04 0.0000000000000000e+00  -9.8962135584478048e-06 -2.1581336919970864e-05 0.0000000000000000e+00  -8.4172145851264165e-05 6.4830492734393002e-05 0.0000000000000000e+00  2.8922886604360352e-04 3.6938125429912316e-04 0.0000000000000000e+00  1.9761049752493933e-05 5.5387885567292482e-04 0.0000000000000000e+00  -1.6804310273498777e-04 5.9039811584762404e-04 0.0000000000000000e+00  7.0430447270498540e-04 1.0590495739572629e-03 0.0000000000000000e+00  -1.5123313474139229e-05 8.6416651623275954e-04 0.0000000000000000e+00  2.8352861595079391e-04 6.3458072413757785e-04 0.0000000000000000e+00  3.4382548824957788e-05 8.9107614186568628e-04 0.0000000000000000e+00  -4.2550175935163572e-04 9.8214536221310524e-04 0.0000000000000000e+00  -2.0378987989262419e-04 7.1004972207574753e-04 0.0000000000000000e+00  -1.2449659916926161e-04 4.1000019849368470e-04 0.0000000000000000e+00  6.1860485054811509e-05 6.2336518917669692e-05 0.0000000000000000e+00  -1.2409469466637284e-04 1.7206356290501031e-04 0.0000000000000000e+00  3.1274294072724092e-04 8.8255394336913065e-04 0.0000000000000000e+00  7.8619250881855880e-04 1.2271173840416826e-03 0.0000000000000000e+00  -8.3925861636685280e-04 5.3980105610652146e-04 0.0000000000000000e+00  3.9234503529101826e-04 7.5975548080125751e-04 0.0000000000000000e+00  1.2158202586189481e-04 7.9464544327566440e-04 0.0000000000000000e+00  -1.4821501080603395e-04 8.7091797619691380e-04 0.0000000000000000e+00  2.9150618246156883e-04 8.2005141496822875e-04 0.0000000000000000e+00  -4.2165255063867242e-04 1.1242259246585923e-03 0.0000000000000000e+00  3.7233800138153556e-04 -2.2298905591927346e-04 0.0000000000000000e+00  6.6173371111898939e-04 -4.5886171549309942e-04 0.0000000000000000e+00  -3.0604836008325142e-04 1.1751124034011136e-03 0.0000000000000000e+00  3.3106187971320897e-04 1.6362762136079238e-03 0.0000000000000000e+00  5.8987815042058013e-04 3.2902179834136115e-04 0.0000000000000000e+00  2.0047665606087248e-04 1.9522018350833536e-04 0.0000000000000000e+00  3.3078720947185764e-05 5.1046748075866553e-04 0.0000000000000000e+00  -1.0294052500627589e-04 5.0066963245960240e-04 0.0000000000000000e+00  -1.7091201532295304e-04 5.4318862692737948e-04 0.0000000000000000e+00  2.4713433799134529e-04 1.0074675788615270e-03 0.0000000000000000e+00  -2.3653349602454450e-04 7.1911829220246864e-04 0.0000000000000000e+00  1.7570352514435398e-04 6.5054234183514108e-04 0.0000000000000000e+00  2.8837918226798106e-05 9.9218692409937161e-04 0.0000000000000000e+00  -3.9330892809474194e-04 1.0169169924861480e-03 0.0000000000000000e+00  4.3088894850121446e-04 6.2991181731241852e-04 0.0000000000000000e+00  2.9251860627268480e-04 6.6691652091873700e-04 0.0000000000000000e+00  -5.3966982533695687e-04 3.6275750730018814e-04 0.0000000000000000e+00  -4.7720993551346414e-04 2.0401441718010215e-04 0.0000000000000000e+00  -3.7227281888890253e-04 5.1101132818458825e-04 0.0000000000000000e+00  6.6759581489981537e-04 6.7394529748689841e-04 0.0000000000000000e+00  -8.5969704052452517e-05 9.5635333371066485e-04 0.0000000000000000e+00  2.7023375096806468e-04 9.1034159223721386e-04 0.0000000000000000e+00  6.4593597515616831e-04 5.8270274049395288e-04 0.0000000000000000e+00  -5.7654550179789461e-04 7.8209933473655637e-04 0.0000000000000000e+00  -4.4400608409178691e-04 1.4104698048916171e-04 0.0000000000000000e+00  -3.2800004864707674e-05 1.6836220928486634e-06 0.0000000000000000e+00  1.3301929364534019e-05 -1.1385874350270483e-05 0.0000000000000000e+00  -1.4883245091155798e-05 4.6265143728702353e-05 0.0000000000000000e+00  -1.0266634120028396e-04 3.2419496658401210e-05 0.0000000000000000e+00  5.9138437652965969e-04 6.4667593740040500e-04 0.0000000000000000e+00  3.3992431379960226e-04 9.0745948736696005e-04 0.0000000000000000e+00  -2.2081766495598404e-04 7.5217077176540758e-04 0.0000000000000000e+00  2.0367961915373413e-04 8.5831116670380110e-04 0.0000000000000000e+00  -1.2402334173259330e-04 8.7899012782061072e-04 0.0000000000000000e+00  4.6619069953067504e-04 4.8652163794632653e-04 0.0000000000000000e+00  3.4253020715923038e-04 9.2608287875799460e-04 0.0000000000000000e+00  5.3492088847240798e-04 5.0082893545917674e-04 0.0000000000000000e+00  5.0383633029369075e-04 3.0226138121334091e-04 0.0000000000000000e+00  7.5997139851881736e-04 5.3398836661171689e-04 0.0000000000000000e+00  9.5158550162232551e-04 8.4061538974075764e-04 0.0000000000000000e+00  1.2896412868256477e-03 6.1624109685279598e-04 0.0000000000000000e+00  7.8265580888257284e-04 -2.6421879963074718e-04 0.0000000000000000e+00  8.8385201888109316e-04 2.3933795800227685e-04 0.0000000000000000e+00  -4.3696732261129360e-04 1.1145947094739494e-04 0.0000000000000000e+00  1.8350485942293435e-04 -3.1415181251593494e-04 0.0000000000000000e+00  8.4787470722601905e-04 -5.6694515412623230e-04 0.0000000000000000e+00  9.3346515798531203e-05 1.9837864567922889e-04 0.0000000000000000e+00  -8.1651651759294885e-05 4.4221654028071618e-05 0.0000000000000000e+00  -1.4867880794330808e-04 2.3301415046698385e-05 0.0000000000000000e+00  -9.8391191620647283e-03 -1.5768503027308992e-03 0.0000000000000000e+00  -3.2225526714775654e-03 6.9573317411118362e-04 0.0000000000000000e+00  6.8910403498354526e-06 -9.4713355567586028e-06 0.0000000000000000e+00  -3.3887595929935765e-05 -3.9776045262540222e-06 0.0000000000000000e+00  -2.0165228068916465e-04 8.0817619610042794e-05 0.0000000000000000e+00  2.4423769486424743e-04 -7.7490243649729084e-04 0.0000000000000000e+00  -2.4617481970411225e-04 -4.8838040466345786e-04 0.0000000000000000e+00  1.4642797843616287e-05 5.0405607943854373e-05 0.0000000000000000e+00  -2.2560584715789890e-03 -9.8880107163357763e-04 0.0000000000000000e+00  4.7455104601519565e-04 1.5056553257567628e-03 0.0000000000000000e+00  3.8034351112760389e-04 6.1404108904660295e-04 0.0000000000000000e+00  1.7068099506765356e-05 1.1059676438875118e-05 0.0000000000000000e+00  -1.7426739764241493e-04 -7.7594593436555129e-04 0.0000000000000000e+00  2.1344922418615092e-04 -2.3536861244614289e-04 0.0000000000000000e+00  2.1562017864542454e-02 2.1572152126949686e+00 0.0000000000000000e+00  1.9060332009307072e-02 -1.9995805364591153e+00 0.0000000000000000e+00  7.1297662152823460e-02 2.6525998193417206e+00 0.0000000000000000e+00  -1.7141977157737021e-02 -7.4544468405140540e-01 0.0000000000000000e+00  1.8109854098003508e-03 2.2511061365466879e-04 0.0000000000000000e+00  9.9782338464619008e-02 -1.8902759922192800e+00 0.0000000000000000e+00  7.8618111839503808e-04 -8.6563753017185677e-04 0.0000000000000000e+00  8.0430503680138640e-02 -2.2865372142553228e-01 0.0000000000000000e+00  -6.1035476017683950e-02 1.8751506355777792e+00 0.0000000000000000e+00  -1.9004477881109851e-04 1.8065980210040358e-01 0.0000000000000000e+00  3.1154205446087873e-04 -9.7307425066177930e-04 0.0000000000000000e+00  1.3250989060910473e-01 1.8306516195745557e+00 0.0000000000000000e+00  -2.3158447953531265e-04 -5.9027114309036493e-04 0.0000000000000000e+00  5.4888257078326394e-05 -7.4908559605635112e-04 0.0000000000000000e+00  6.7640597024014579e-02 -1.5915704125178238e+00 0.0000000000000000e+00  5.5071150955257209e-01 6.8815817610651711e-02 0.0000000000000000e+00  -1.6517179996663094e-05 -1.3995526472307392e-05 0.0000000000000000e+00  1.0869660449922321e-02 -2.6276031030675867e-01 0.0000000000000000e+00  -1.9633221648610248e-02 -1.5915724445625385e+00 0.0000000000000000e+00  -8.0829342041089117e-02 -1.8938738015677284e-01 0.0000000000000000e+00  -3.7892507286970939e-01 3.0446818036924816e+00 0.0000000000000000e+00  -9.6344177717647098e-02 2.0255163613586826e+00 0.0000000000000000e+00  -2.4644805988032420e-01 2.0328571880464934e+00 0.0000000000000000e+00  2.1358071768558509e-01 3.0065507014858994e+00 0.0000000000000000e+00  7.4615046343365674e-02 -1.9642387441413551e+00 0.0000000000000000e+00  6.8379739367028557e-03 1.5548592705426818e+00 0.0000000000000000e+00  2.1516736699303617e-02 -1.9834976236085053e+00 0.0000000000000000e+00  -1.5487550874253242e-01 1.4845944161400717e+00 0.0000000000000000e+00  -9.2284090918031927e-02 1.8187016860605556e+00 0.0000000000000000e+00  4.7429115920971904e-02 2.0895358848958545e+00 0.0000000000000000e+00  5.0843501551472770e-01 2.0467714315272696e+00 0.0000000000000000e+00  1.3550820456811141e+00 8.8491071016331568e-01 0.0000000000000000e+00  2.8490316548985147e-02 1.3088466209545326e+00 0.0000000000000000e+00  -7.5229448863490006e-02 5.0850895054724221e-01 0.0000000000000000e+00  2.9301837352971616e-01 2.2667541784531582e+00 0.0000000000000000e+00  4.4206836225228391e-02 -1.6611442983667659e+00 0.0000000000000000e+00  3.3804814152366330e-02 8.9326227044318185e-01 0.0000000000000000e+00  1.0319541986550189e-01 1.6324338173648847e+00 0.0000000000000000e+00  1.9173196996573935e-01 -1.7495962274266117e-02 0.0000000000000000e+00  -9.0954822143726924e-02 -9.5547743592956447e-01 0.0000000000000000e+00  6.3189792859585980e-02 1.9749282391080756e+00 0.0000000000000000e+00  2.9327362510626932e-02 1.9373972579163363e+00 0.0000000000000000e+00  2.0336856706731710e-06 -1.3269174282136629e-05 0.0000000000000000e+00  -7.5930184906115449e-04 -3.0922581672150737e-04 0.0000000000000000e+00  1.2491214439102108e-01 1.9255997970518679e+00 0.0000000000000000e+00  -9.3594449928035700e-02 -1.6222696422443470e+00 0.0000000000000000e+00  5.8639573767971361e-02 1.6224816346059330e+00 0.0000000000000000e+00  -1.1635104380938033e-01 -1.5769020336569433e+00 0.0000000000000000e+00  -1.0089277724264927e-03 -9.4531592842859763e-04 0.0000000000000000e+00  -1.8927449213587971e-01 1.7983769602702302e+00 0.0000000000000000e+00  -1.7606135379138532e-02 -1.5164313095917878e+00 0.0000000000000000e+00  2.3060165006767194e-01 -1.6183701197636806e+00 0.0000000000000000e+00  4.6127208270456119e-02 -1.7866637024732759e+00 0.0000000000000000e+00  2.8989037999183637e-02 1.9668031909667740e+00 0.0000000000000000e+00  1.2320036677856509e-05 -2.0025621701081169e-05 0.0000000000000000e+00  5.8610379943745876e-04 -1.1754123503134233e-03 0.0000000000000000e+00  5.7385871335679790e-05 -3.3164332923677533e-04 0.0000000000000000e+00  -2.6852150065890985e-02 1.7346613749117199e+00 0.0000000000000000e+00  1.5553495259434343e-02 -1.4491129857354375e+00 0.0000000000000000e+00  5.1203513829610015e-01 4.7964309343072126e-01 0.0000000000000000e+00  6.7111125849852529e-02 -1.4385271980356880e+00 0.0000000000000000e+00  -3.0460476608357534e-01 -7.7604584725020342e-01 0.0000000000000000e+00  1.4713167516168754e-01 -1.0742502468779658e+00 0.0000000000000000e+00  -1.0285183555504736e-02 -1.5074528749656249e+00 0.0000000000000000e+00  -1.1697539551301819e+00 8.6246433664805944e-01 0.0000000000000000e+00  -7.1187273473761192e-01 -1.2201562822870065e+00 0.0000000000000000e+00  6.4068197226732875e-04 -7.0483753577189163e-04 0.0000000000000000e+00  1.6164143387058130e-04 -7.2060366522699079e-04 0.0000000000000000e+00  -6.1307189608598262e-04 -8.2605152102327428e-04 0.0000000000000000e+00  -1.9828451667419610e-03 -5.3624859959375412e-04 0.0000000000000000e+00  5.9235811499988990e-04 -8.2071199072007706e-04 0.0000000000000000e+00  -6.4643959677388556e-03 3.2108612059408186e-04 0.0000000000000000e+00  1.0700664403968830e-03 -2.2420026651726155e-04 0.0000000000000000e+00  1.1963025381582009e-03 -9.7077326638958739e-05 0.0000000000000000e+00  3.6986820541720761e-03 -1.1523902036419686e-03 0.0000000000000000e+00  -4.2680797614317131e-02 -1.3905153863025610e+00 0.0000000000000000e+00  7.6738734727734315e-01 -4.5438988196726282e-01 0.0000000000000000e+00  6.9134055822742735e-02 -1.3992066588048764e+00 0.0000000000000000e+00  -4.6141449287885344e-01 -4.1264779506448074e-01 0.0000000000000000e+00  6.7973548962897909e-02 -2.0277669758978569e+00 0.0000000000000000e+00  1.6504329583653946e-01 -8.4302876906659940e-01 0.0000000000000000e+00  -3.1697148758284811e-02 -4.3604714987501542e-01 0.0000000000000000e+00  -1.1415189054164215e-01 -1.9738086926076406e+00 0.0000000000000000e+00  -2.6751720775048806e-02 9.3371383024903898e-01 0.0000000000000000e+00  1.2312916903221888e-02 2.0999000846260918e+00 0.0000000000000000e+00  -1.5419217483252453e-02 5.7504161089631167e-01 0.0000000000000000e+00  1.8323671493674729e-02 1.1307768702552865e+00 0.0000000000000000e+00  2.7127910765324278e-02 -1.7174014261433519e+00 0.0000000000000000e+00  -9.7846430111509120e-02 1.7841464681629906e+00 0.0000000000000000e+00  -8.4442383188025230e-02 1.6893128583618646e+00 0.0000000000000000e+00  -3.9728373907778051e-02 1.7128804608931367e+00 0.0000000000000000e+00  5.6680131030733202e-02 -1.6077507016654329e+00 0.0000000000000000e+00  1.0910413858188768e-01 -1.6218078831938889e+00 0.0000000000000000e+00  -2.2195251015715203e-02 1.1493375830721615e+00 0.0000000000000000e+00  6.0059571804040687e-02 1.9019224079416175e+00 0.0000000000000000e+00  -4.6134009644995463e-02 -1.8391801318323397e+00 0.0000000000000000e+00  -2.6727643125121819e-01 -6.5527001759235526e-01 0.0000000000000000e+00  -1.2052231375943105e+00 1.2019792018862374e+00 0.0000000000000000e+00  -9.0037389275613267e-01 6.0847721341118943e-01 0.0000000000000000e+00  3.2869323798395030e-02 1.6649921361882336e+00 0.0000000000000000e+00  -2.5452947235801276e-01 -4.0718777991457933e-01 0.0000000000000000e+00  -3.0856699519440169e-02 -1.6991037477596147e+00 0.0000000000000000e+00  4.0584050730436388e-02 5.8611932800540356e-01 0.0000000000000000e+00  -8.5542799606158570e-02 -1.0843300134892901e+00 0.0000000000000000e+00  8.7385957317017801e-02 2.0331212381186488e+00 0.0000000000000000e+00  -4.9796196623652804e-02 -1.3884099870315261e+00 0.0000000000000000e+00  -1.9785181555381201e-01 -1.0860423727715334e+00 0.0000000000000000e+00  -2.2852192126342027e-02 -1.8200994261153565e+00 0.0000000000000000e+00  5.2379163749250487e-02 -1.6286758062320277e+00 0.0000000000000000e+00  4.5698620814890373e-02 -7.0569519640825051e-01 0.0000000000000000e+00  -8.3778220908808251e-02 3.1090826768300257e+00 0.0000000000000000e+00  1.9986675192163079e-02 -2.9473179452363819e-02 0.0000000000000000e+00  9.8199680880921875e-02 -1.8309749443736456e+00 0.0000000000000000e+00  1.5140798029837659e-02 -1.7442479658448595e+00 0.0000000000000000e+00  3.3609509366590198e-02 -2.0452868044724690e+00 0.0000000000000000e+00  -6.5722421177812018e-02 -1.2214668229635395e+00 0.0000000000000000e+00  4.5904623749001527e-01 2.6558587680301704e+00 0.0000000000000000e+00  -2.2298706702610713e-01 -4.6544621410967735e-01 0.0000000000000000e+00  -9.3030070332803458e-03 1.8938696368608765e+00 0.0000000000000000e+00  -8.3951304151729453e-02 -1.7918541194504457e-02 0.0000000000000000e+00  1.3352754563627342e-01 -1.8425803480991734e+00 0.0000000000000000e+00  2.6481225428890847e-02 -1.5211140875828191e+00 0.0000000000000000e+00  5.1340642655870801e-02 -2.0073199677816951e+00 0.0000000000000000e+00  5.8948287415201556e-02 1.8582655898108384e+00 0.0000000000000000e+00  3.2103288082953502e-01 8.0137461086630946e-01 0.0000000000000000e+00  4.2295285182108988e-01 6.8587119884700043e-01 0.0000000000000000e+00  1.6838749924986782e-01 -1.7485151803529018e+00 0.0000000000000000e+00  9.3940746470992667e-02 2.3134823872689534e+00 0.0000000000000000e+00  -6.7494920073277748e-03 1.6450758968929937e+00 0.0000000000000000e+00  1.2183190280784403e-02 -1.7743405201757536e+00 0.0000000000000000e+00  3.8859746483586394e-02 1.6529357940632781e+00 0.0000000000000000e+00  -7.2939430732911287e-02 2.4484318105294607e+00 0.0000000000000000e+00  -6.7980029630947669e-01 7.8941784781448154e-01 0.0000000000000000e+00  -1.5688445330720335e-02 -9.7546878476208665e-01 0.0000000000000000e+00  8.4967551896061888e-01 -5.8655033546047819e-01 0.0000000000000000e+00  5.7366943351917367e-02 2.0241361359111227e+00 0.0000000000000000e+00  -2.7801608289569613e-01 1.5599061247483159e+00 0.0000000000000000e+00  2.1495715095547967e-02 -1.7868268145241613e+00 0.0000000000000000e+00  9.7638779350595717e-01 2.9285882526763500e+00 0.0000000000000000e+00  -4.4244452055031004e-02 5.1482213899231943e-01 0.0000000000000000e+00  1.0853535873481901e+00 1.9527848208006640e+00 0.0000000000000000e+00  1.9286208646835825e+00 -1.1453267210812696e+00 0.0000000000000000e+00  -4.5697411844131526e-04 -9.4875609294339184e-04 0.0000000000000000e+00  1.3806128175932061e-01 5.2239818288909823e-01 0.0000000000000000e+00  -7.4834547934041790e-02 -1.3093895788925145e+00 0.0000000000000000e+00  -3.6709934507378639e-02 1.9577668279228326e+00 0.0000000000000000e+00  -3.9519367092440654e-04 -7.3734511234242511e-04 0.0000000000000000e+00  4.7258731438049343e-04 -3.2381679019565852e-04 0.0000000000000000e+00  1.9100996944604584e-02 1.6060426053396264e+00 0.0000000000000000e+00  2.3656089561974564e-01 -1.4289014560061115e+00 0.0000000000000000e+00  -3.5604760763875663e-03 1.9643018116320776e+00 0.0000000000000000e+00  7.6458596390094627e-02 -7.4638277857102975e-01 0.0000000000000000e+00  1.7105574473791266e-01 -9.0116382916601989e-01 0.0000000000000000e+00  -3.4182713410711081e-03 2.1008046671746818e+00 0.0000000000000000e+00  4.8436714298342272e-04 -7.7832557365352959e-04 0.0000000000000000e+00  1.5557166096351033e-01 -1.6765211174410974e+00 0.0000000000000000e+00  1.6567549344027543e-01 1.7122961821601064e+00 0.0000000000000000e+00  -8.4814161754635520e-02 1.0926294819535067e+00 0.0000000000000000e+00  -2.4222021685519214e-02 1.8865904704409115e+00 0.0000000000000000e+00  2.8431187680549939e-02 1.2169112005597178e+00 0.0000000000000000e+00  7.2927445591724704e-02 -3.8443424122044539e-01 0.0000000000000000e+00  3.1870770647089208e-02 -3.7335869936918559e-01 0.0000000000000000e+00  5.7046016408287763e-02 1.2809434873695738e+00 0.0000000000000000e+00  -5.4341450027929138e-02 7.5639032110548499e-01 0.0000000000000000e+00  7.8252409521382905e-04 -9.1757838454239766e-04 0.0000000000000000e+00  -1.8048385367876656e-02 -8.6000343381993749e-01 0.0000000000000000e+00  -7.6488177176833733e-03 -5.3211539982219130e-04 0.0000000000000000e+00  -6.2599671745221979e-04 -2.1120297815097541e-04 0.0000000000000000e+00  2.3145803999819865e-02 -9.6310722515320835e-01 0.0000000000000000e+00  6.4937775970139916e-02 -1.4059800334911270e+00 0.0000000000000000e+00  1.4124954868944581e-01 -1.7858845628568243e+00 0.0000000000000000e+00  9.4396963988569119e-03 -1.8081927462413556e+00 0.0000000000000000e+00  9.9828543809041451e-02 -5.4682469227267338e-01 0.0000000000000000e+00  7.3851560964206822e-02 -1.8103072150465322e+00 0.0000000000000000e+00  -4.5110437777004458e-01 -2.3302138433963543e-01 0.0000000000000000e+00  -8.2748266861261049e-02 1.6291164974706878e+00 0.0000000000000000e+00  2.4883931581247659e-02 -1.9150551903109021e+00 0.0000000000000000e+00  3.7972974468427756e-01 1.7320326946339990e+00 0.0000000000000000e+00  8.5721641896927867e-02 -1.9370723221705544e+00 0.0000000000000000e+00  -7.8060968151941856e-01 1.3858689248793035e+00 0.0000000000000000e+00  -3.5195766505082347e-02 6.2639527983295851e-01 0.0000000000000000e+00  -7.5826770105893573e-02 -1.8178989584767167e+00 0.0000000000000000e+00  -1.0021595665810253e-01 1.3693528966700619e+00 0.0000000000000000e+00  -3.3836150025880340e-01 -8.2387884608057216e-01 0.