<?xml version="1.0"?>
<VTKFile type="UnstructuredGrid"  version="0.1"  >
<UnstructuredGrid>
<Piece  NumberOfPoints="4961" NumberOfCells="9546">
<Points>
<DataArray  type="Float64"  NumberOfComponents="3"  format="ascii">0 1.5 0  -0 0.09117947244826481 0  0.0220162612375116 0.1293127555043441 0  0.05279126660105127 0.1634918616050268 0  0.09000000000000007 0.1905255888325765 0  0.1320162612375116 0.2092324335849338 0  0.1770037380811163 0.2187948169810202 0  0.2229962619188838 0.2187948169810201 0  0.2679837387624884 0.2092324335849338 0  0.3100000000000001 0.1905255888325765 0  0.3472087333989489 0.1634918616050267 0  0.3779837387624885 0.1293127555043441 0  0.4009800006813722 0.08948206147667603 0  0.4052662851173224 0.07629023443250138 0  0.4200599930048062 0.1082663100071745 0  0.4475409466961425 0.1444168863592189 0  0.4821507162738997 0.173814689612947 0  0.522270987378618 0.1950851111615262 0  0.5660257807239194 0.2072335697337205 0  0.6113691708029376 0.209692016908736 0  0.6561809510911363 0.2023454984290368 0  0.6983657725469559 0.1855375293336648 0  0.7359511198041838 0.1600540315768036 0  0.7671795437981852 0.1270865851906907 0  0.7895690044779959 0.089875012069959 0  0.7989002782867461 0.1116194513821486 0  0.825485631780658 0.1498156710261111 0  0.8592156240140376 0.1818784194956707 0  0.8987093451417441 0.2064950441012706 0  0.9423499175804944 0.222657737339227 0  0.9883506911670961 0.2297047966493422 0  1.034828388826053 0.2273477145954656 0  1.079880208154309 0.2156829903938285 0  1.121661722375201 0.1951881792237927 0  1.158462391387408 0.1667023410626976 0  1.188775591477674 0.1313916894718022 0  1.211360296672653 0.09070184667606328 0  1.225291886488074 0.04629865962039181 0  1.23 0 0  1.38 0 0  1.384807527838563 0.04574057197990705 0  1.399019999318628 0.08948206147667601 0  1.422016261237512 0.1293127555043441 0  1.452791266601051 0.1634918616050268 0  1.49 0.1905255888325765 0  1.532016261237512 0.2092324335849338 0  1.577003738081116 0.2187948169810202 0  1.622996261918884 0.2187948169810201 0  1.667983738762489 0.2092324335849338 0  1.71 0.1905255888325765 0  1.747208733398949 0.1634918616050267 0  1.763158635297163 0.1457777009465727 0  1.8 0.1732050807568878 0  1.842639353457782 0.1915979024630978 0  1.888371034217905 0.1996616316542537 0  1.934729635533386 0.1969615506024416 0  1.979215953207831 0.1836432213760548 0  2.019431718340557 0.1604246385510087 0  2.053208888623796 0.1285575219373079 0  2.078726528064682 0.08975983604009244 0  2.089496128668151 0.06017060156551748 0  2.099019999318628 0.08948206147667601 0  2.122016261237512 0.1293127555043441 0  2.152791266601051 0.1634918616050268 0  2.19 0.1905255888325765 0  2.232016261237511 0.2092324335849338 0  2.277003738081116 0.2187948169810202 0  2.322996261918884 0.2187948169810201 0  2.367983738762488 0.2092324335849338 0  2.41 0.1905255888325765 0  2.447208733398949 0.1634918616050267 0  2.457084733682728 0.1525234520934048 0  2.4821507162739 0.173814689612947 0  2.522270987378618 0.1950851111615262 0  2.56602578072392 0.2072335697337205 0  2.611369170802938 0.209692016908736 0  2.656180951091136 0.2023454984290368 0  2.698365772546956 0.1855375293336648 0  2.735951119804184 0.1600540315768036 0  2.767179543798185 0.1270865851906907 0  2.790590838130901 0.08817671132765556 0  2.805090316699118 0.04514379244431505 0  2.81 0 0  3 0 0  3 1.5 0  0 0.7956998320486358 0  0.4110904441558352 0.08887894789033324 0  0.7773699356874649 0.1101500221202465 0  1.5 1.5 0  3 0.75 0  0 0.4434396522484503 0  3 0.375 0  0 0.2673095623483576 0  0 0.1792445173983112 0  0 0.135211994923288 0  2.25 1.5 0  0.75 1.5 0  1.807676614587897 0.8837271123414687 0  1.04553857344641 0.8979441530181422 0  2.403437242208115 0.8132876225209357 0  0.5070864579510219 1.00719278150819 0  3 1.125 0  1.338035405010484 0.5883821138073757 0  2.625 1.5 0  0.3818338799394321 0.6099209340690734 0  2.067950237167102 0.5767429460037152 0  1.428016626639016 0.9663701540160734 0  1.875 1.5 0  2.136976695697423 1.114248364898298 0  1.125 1.5 0  0.375 1.5 0  0.7837785056474272 0.5924157926009261 0  2.621900904970652 1.121900904970652 0  0 1.147849916024318 0  1.717071692555337 0.550779009763445 0  1.678619011272733 1.204235418149387 0  0.8184015011321764 1.160011833453945 0  2.690771901920515 0.5625 0  1.191553529739931 1.18494431212041 0  2.361743998733192 0.516240498397431 0  2.727335050325185 0.8509414958930873 0  1.061120194703906 0.6196995992969355 0  0.269244960297408 0.8637990218922467 0  0.7609530458041533 0.8768664729047809 0  0.5625 1.286150286226427 0  0.2788879438654684 1.226607136693913 0  2.077535333020466 0.8486969269297693 0  2.4375 1.312474598220077 0  2.809426100237187 1.309426100237187 0  1.544358239139601 0.7389704993474611 0  1.434454912167138 1.210530519498476 0  2.380335199591509 1.061271835208851 0  1.926191456889599 1.252931474193008 0  0.5486378118088926 0.7757115443742588 0  0.5753328044103648 0.454959652232189 0  1.281333603460298 0.3634530521588742 0  0.9959109141311655 1.308173392725312 0  1.507364216928931 0.4358170942512657 0  1.21812632380771 0.7680504611018459 0  0 0.6195697421485431 0  1.3125 1.5 0  0.2892140007400885 0.4197188740688536 0  1.924109453869066 0.4139433366638808 0  0.9329747065756857 0.4375180073994652 0  2.243231692495831 0.684324343130167 0  2.0625 1.5 0  2.124178136191116 0.3821183579116478 0  1.923364695744858 0.7179848099571996 0  2.233034933769442 1.295537230099697 0  1.961794510294921 1.014032929092127 0  0.9133498533613748 0.7509830595402348 0  0 0.9717748740364769 0  0.1875 1.5 0  0 1.323924958012159 0  1.227107007305785 0.9862124750220198 0  1.616617139708145 0.9194004298184476 0  2.811636610329211 1.039737091854792 0  0.1901803394569171 0.5855957240372172 0  2.511165533602297 0.6467174115519351 0  2.536466024168012 0.9507486861843897 0  0.1866521719860137 1.047526440960541 0  2.74946330463778 0.3751246081287475 0  2.543804048982231 0.4145708923164018 0  0.9375 1.5 0  2.4375 1.5 0  0.5625 1.5 0  3 0.5625 0  1.6875 1.5 0  3 0.1875 0  3 0.9375 0  3 1.3125 0  2.8125 1.5 0  1.010044310702206 1.096645863828023 0  2.623488142128434 1.314011651358178 0  2.229558763998408 0.9540962470011799 0  2.845385950960257 0.65625 0  0.7525337220569124 0.4130199536593896 0  1.10537722367743 0.3921278680533664 0  0.6842290971134891 1.039833940778862 0  0.7386374643770518 1.32083913541365 0  1.553387564684306 1.08522930563603 0  1.788789291239656 1.06235950910253 0  1.559809215736361 1.334301807720895 0  1.750410104758408 0.7205088288478614 0  1.672011031024921 0.3842266692686779 0  1.77867146649739 1.349246747510312 0  1.21875 1.355246746101045 0  0.8723426006985372 1.001666865795386 0  1.380631426145093 0.7466576340788873 0  0.4259246536592668 0.3283409344703117 0  0.3444360723462823 1.008028502358495 0  0.6161474109915657 0.6198433096250735 0  0.4265019066463465 1.151756411601508 0  1.403034104827827 1.367717620859348 0  2.874684993382777 0.28125 0  2.874778249279309 0.46875 0  2.071314369495706 1.334001876948522 0  2.3 0.3730371416193449 0  1.322682484320052 1.105857305698365 0  1.563127563616163 0.5828461597844022 0  2.559040610931566 0.7958017532902765 0  1.213306121383676 0.5002133671656324 0  1.916121887065227 0.5659454196943852 0  2.207677378621353 0.5116761937353096 0  0.1257028237453774 1.235887437018238 0  0.7203062975228639 0.7304636720840537 0  0.3921145397364951 0.7663844669080319 0  2.70905347612285 0.7067207479465436 0  2.87968965213058 0.84375 0  0.1396742765227637 0.3714373577111671 0  0.1209675020841686 0.8837373530425563 0  0.1396318055029159 0.7309656161457982 0  0.4039274761094683 1.336239793581983 0  2.676470777350768 0.9877614171414461 0  0.2098223519481562 1.355491059017463 0  0.6161949108813681 0.9073080762684851 0  0.6728981805985057 1.187471545812503 0  0.4313243650936899 0.473428383024358 0  1.317579957488075 0.8752219089473544 0  1.05247475519209 0.7587740171666131 0  0.9218858728134471 0.6117854803862035 0  2.343741823603972 1.201704901656183 0  2.483180588903391 1.163054990844907 0  1.336494261441537 0.237261632693729 0  2.096334636915305 0.983917300563715 0  2.059942810014369 0.7131710752499992 0  1.940957218750955 0.8535106616369695 0  0.2735884026449029 0.6956028768230409 0  2.3791553829517 0.6794620539851567 0  2.443566922502795 0.3224565874575337 0  2.21140571429892 0.8179437442036444 0  2.863880028189143 1.175018869261394 0  1.212122991296861 0.6341965806889284 0  0.8702381850023826 1.37471255674248 0  0.4252003220264352 0.89843828480276 0  2.714126143737636 1.217200861470203 0  2.34375 1.406237299110039 0  2.71875 1.406237608026668 0  2.903224894283775 1.403224894283775 0  2.53125 1.5 0  1.444637821860123 0.3169971434781329 0  1.307097209138961 1.253815337580837 0  1.806074818262501 0.3310941379078186 0  0.09375 1.5 0  1.96875 1.5 0  1.467196512253796 0.8429542418758076 0  0.7811182225539175 0.2860230046382459 0  0.8880470276332622 0.8755399020562793 0  2.004554624687214 1.142507703833496 0  1.901808674873915 1.376717053991818 0  1.80956117606876 1.192202387775541 0  0.65625 1.5 0  2.256163989601168 1.076312782066936 0  2.35728348455407 0.9340561611988477 0  0.5508073343087652 1.161974855816299 0  1.822201850254356 0.484799098822588 0  0.6415475671733072 0.3394071993736185 0  0.6854011703162045 0.5171310296285601 0  2.010601404748645 0.3128962050875828 0  1.458109478391155 0.6494112449225909 0  1.556659288882675 1.21212759481645 0  2.15625 1.5 0  1.102952541966123 1.010721102324488 0  3 0.09375 0  2.905 0 0  1.698833571793874 0.8302602504158462 0  0.1128136071602732 0.4908067814983783 0  1.375215724596343 0.4593979824254396 0  1.667188501011557 1.033651962891267 0  0.5152717989473731 0.5573202673988191 0  0.4756630816937197 0.6823252715484635 0  2.485944291803511 0.5248037876852512 0  0.609375 1.393075143113214 0  1.657554629504312 0.6506084627130724 0  1.180547956106694 0.2992004577305749 0  1.040994897946075 0.4976964206623483 0  2.883588023402782 0.1625217501240843 0  1.437965738677728 1.09476840787
[...]
<PointData  Vectors="f_60"> 
<DataArray  type="Float64"  Name="f_60"  NumberOfComponents="3" format="ascii">5.4702210298058955e-05 -3.7917165346795280e-04 0.0000000000000000e+00  -1.9866918784912366e-04 3.4075191841868657e-04 0.0000000000000000e+00  -1.5932156867047430e-05 2.2700894143328648e-04 0.0000000000000000e+00  2.9849694205160760e-04 1.3319315290059543e-04 0.0000000000000000e+00  1.3676424668071475e-04 1.7210911453919271e-04 0.0000000000000000e+00  -2.7018365323568414e-04 3.8244536514733785e-04 0.0000000000000000e+00  2.4739744406383508e-04 4.9951555982347844e-04 0.0000000000000000e+00  6.0898571770731116e-05 1.8177337327680328e-04 0.0000000000000000e+00  -2.2386273458839789e-05 9.9403371121460667e-05 0.0000000000000000e+00  1.7204142059024441e-04 -2.5516471890760979e-05 0.0000000000000000e+00  -3.2019773467737865e-04 3.8746673726286734e-04 0.0000000000000000e+00  -4.2464251754062108e-05 4.6238580328920138e-04 0.0000000000000000e+00  1.4465724863079038e-04 1.6351047371976940e-04 0.0000000000000000e+00  -9.8833468231550572e-05 8.9522359026130482e-05 0.0000000000000000e+00  6.7316977178215559e-05 2.5501152167642865e-04 0.0000000000000000e+00  -3.0096740883254599e-05 2.9360645384839986e-04 0.0000000000000000e+00  -2.2435755541152480e-05 4.1810944345500054e-04 0.0000000000000000e+00  3.4025796248298589e-04 4.3756910143906977e-04 0.0000000000000000e+00  8.1236767572883501e-05 2.1228688780137436e-04 0.0000000000000000e+00  8.1746450587780615e-05 1.3929027697617412e-04 0.0000000000000000e+00  -1.4490533213158723e-04 2.2711415949367786e-04 0.0000000000000000e+00  -1.4450709565259263e-04 4.7919741851622000e-04 0.0000000000000000e+00  6.6396392094539324e-05 3.9234893292184686e-04 0.0000000000000000e+00  3.2361619949623041e-05 3.0060470847308158e-04 0.0000000000000000e+00  -2.4967693756082786e-04 2.2983598568687810e-04 0.0000000000000000e+00  -1.9604080240277498e-04 3.1070578004802632e-04 0.0000000000000000e+00  1.9713841866218814e-04 5.0747380973820361e-04 0.0000000000000000e+00  3.5419915932788783e-04 3.8183186926502981e-04 0.0000000000000000e+00  -1.4094235376268285e-04 -1.8386737566398253e-05 0.0000000000000000e+00  1.0792301238571371e-04 1.7570751515751245e-04 0.0000000000000000e+00  -1.7797186843963286e-04 2.8582701825806943e-04 0.0000000000000000e+00  -3.6620493280487500e-05 4.9294623166367540e-04 0.0000000000000000e+00  3.7687031724759887e-04 2.0318300505304377e-04 0.0000000000000000e+00  -2.7634615938663503e-05 1.6181474200189063e-04 0.0000000000000000e+00  -7.0082742450492575e-06 -5.3924164227091555e-05 0.0000000000000000e+00  -2.9017658460173864e-05 -1.0644659683399675e-04 0.0000000000000000e+00  -1.3800749515043974e-04 2.6786938977590747e-04 0.0000000000000000e+00  1.4107373270086365e-04 7.0874476329703081e-04 0.0000000000000000e+00  4.7294777776232799e-04 3.3527100471821513e-04 0.0000000000000000e+00  1.2352282096588627e-04 1.7879479436213805e-04 0.0000000000000000e+00  -1.0315514074477939e-04 2.2845583851936066e-04 0.0000000000000000e+00  -1.3539656457342951e-04 2.2270557829690368e-04 0.0000000000000000e+00  -7.4779683462720172e-05 3.5894235730627301e-04 0.0000000000000000e+00  1.3331072795057895e-04 3.1990608047443008e-04 0.0000000000000000e+00  2.0930292296209661e-05 1.5039985783433564e-04 0.0000000000000000e+00  4.0965221752177193e-05 1.7646186294745900e-04 0.0000000000000000e+00  -1.6732554416991449e-04 3.1456332958661886e-04 0.0000000000000000e+00  -1.3722880680978525e-04 4.2163928332986886e-04 0.0000000000000000e+00  3.2862020556219103e-04 2.5763806165173328e-04 0.0000000000000000e+00  2.8418321009945701e-04 1.0709627094671678e-04 0.0000000000000000e+00  -1.6460321998682786e-04 4.2970967490530738e-04 0.0000000000000000e+00  -3.5162115515777675e-04 4.5473696441667154e-04 0.0000000000000000e+00  -6.5731363050596284e-05 1.4494277340695478e-04 0.0000000000000000e+00  1.0662361644126419e-04 1.1101032361048686e-04 0.0000000000000000e+00  -2.3221814486819762e-04 3.1398101524878023e-04 0.0000000000000000e+00  1.0802265714540675e-04 5.2941425041034759e-04 0.0000000000000000e+00  4.3524486045364388e-04 2.0061321411433955e-04 0.0000000000000000e+00  -7.0559955925309748e-05 1.1985994846197985e-04 0.0000000000000000e+00  -1.9013135720357031e-04 -1.7235758519109516e-05 0.0000000000000000e+00  -1.1551486892526210e-04 -4.5091732666269497e-05 0.0000000000000000e+00  -2.1169475564973923e-05 -1.1846756818238648e-04 0.0000000000000000e+00  -7.4660638406342188e-05 -8.0732532001928990e-06 0.0000000000000000e+00  -5.4177941618858548e-05 3.5692326790832082e-05 0.0000000000000000e+00  2.5119571537554462e-04 1.0710707747438131e-04 0.0000000000000000e+00  3.4752308945644677e-05 1.1083351677870871e-04 0.0000000000000000e+00  -3.5020454825296224e-04 2.5664610376694477e-04 0.0000000000000000e+00  2.1491822609918774e-04 4.1074415584243455e-04 0.0000000000000000e+00  2.7930150538752851e-04 3.5772068324167717e-04 0.0000000000000000e+00  -6.1443369332882299e-06 5.3318575887268340e-05 0.0000000000000000e+00  2.7851915179740142e-05 1.3070686110862328e-04 0.0000000000000000e+00  3.0865032682846685e-04 4.0300923759258001e-04 0.0000000000000000e+00  6.0436599620990162e-04 3.1655229188652390e-04 0.0000000000000000e+00  3.7753022056969586e-04 2.9391941564365601e-04 0.0000000000000000e+00  9.5066000089020534e-05 2.7345622226860428e-04 0.0000000000000000e+00  1.1636007911436117e-04 2.9541565086279822e-04 0.0000000000000000e+00  2.2113321838918793e-04 2.8081902076043350e-05 0.0000000000000000e+00  1.8279536381939819e-04 -1.1974275517530325e-04 0.0000000000000000e+00  1.4389637128902372e-04 -5.3147412684378026e-04 0.0000000000000000e+00  -4.1847231475510065e-04 -1.7082179265006154e-04 0.0000000000000000e+00  -5.0853579158088023e-04 1.3810115476844604e-04 0.0000000000000000e+00  6.8829036087595085e-05 1.3109784536127918e-04 0.0000000000000000e+00  3.1757997871095111e-04 -1.0456897448165438e-04 0.0000000000000000e+00  2.7262416424881221e-04 -7.0762218178152626e-05 0.0000000000000000e+00  -9.3514393491802034e-03 -3.2910142643791758e-03 0.0000000000000000e+00  2.7940056469089544e-03 2.6971606859787410e-04 0.0000000000000000e+00  -1.3798912948300844e-05 2.3321167501433465e-05 0.0000000000000000e+00  -3.2902549065278918e-05 -5.7510583848294082e-05 0.0000000000000000e+00  -2.5237972242254128e-04 1.9784125976589118e-04 0.0000000000000000e+00  5.1697770537059373e-06 -5.1777792986044220e-04 0.0000000000000000e+00  2.0586916683413306e-04 -1.1183568112186764e-04 0.0000000000000000e+00  8.1491197275793838e-06 4.5559510192235466e-05 0.0000000000000000e+00  -4.8343241950935846e-04 5.1659149667682710e-06 0.0000000000000000e+00  1.4238905358884030e-04 3.6048132737963139e-04 0.0000000000000000e+00  2.0214193654648170e-04 2.3911264948850024e-04 0.0000000000000000e+00  -1.7643914838505413e-05 5.2120328351687266e-04 0.0000000000000000e+00  -2.9932035179858440e-05 -1.2357421332966469e-04 0.0000000000000000e+00  4.0382558804281399e-05 1.0320583453799984e-05 0.0000000000000000e+00  4.4227463883189421e-03 5.2787476933157684e-01 0.0000000000000000e+00  1.8612382309153011e-03 -4.8975211173182936e-01 0.0000000000000000e+00  4.3501280371707274e-03 6.5391893643629728e-01 0.0000000000000000e+00  -4.4377259019005187e-03 -1.8959731661406587e-01 0.0000000000000000e+00  9.9713145927069011e-04 5.7401777113704522e-06 0.0000000000000000e+00  1.9118741614047582e-02 -4.7345350665458863e-01 0.0000000000000000e+00  -5.5154418167699707e-04 -2.6397725212825375e-04 0.0000000000000000e+00  1.7900501994563799e-02 -7.9491137358573258e-02 0.0000000000000000e+00  -2.1435587610935693e-02 4.5065243661441207e-01 0.0000000000000000e+00  -4.9975047604730789e-04 4.3486317168996445e-02 0.0000000000000000e+00  3.0180563098115804e-04 -2.7930206462005317e-04 0.0000000000000000e+00  3.2148871204985122e-02 4.2367094167318048e-01 0.0000000000000000e+00  -2.3027412243351042e-04 -2.8578193311109965e-04 0.0000000000000000e+00  2.3676690544992168e-04 -2.7650575021860401e-04 0.0000000000000000e+00  1.4779921298020733e-02 -3.8069894331877585e-01 0.0000000000000000e+00  1.4007210834232087e-01 1.6704828393145266e-01 0.0000000000000000e+00  -6.7564218668703184e-06 2.9278713114425989e-05 0.0000000000000000e+00  1.0608028160863541e-03 -6.0752869146362264e-02 0.0000000000000000e+00  -6.6646381258809164e-03 -3.9140906213060478e-01 0.0000000000000000e+00  -1.8518281289625731e-02 -6.8383617503704558e-02 0.0000000000000000e+00  -1.2099285749685817e-01 7.6706374902344132e-01 0.0000000000000000e+00  -1.8506466857045024e-02 4.9192306357145837e-01 0.0000000000000000e+00  -7.0732785181356977e-02 4.6108844120602926e-01 0.0000000000000000e+00  3.0952567726918803e-02 7.3090584138901382e-01 0.0000000000000000e+00  1.7055565312820875e-02 -4.7595986303477894e-01 0.0000000000000000e+00  3.9371534687896673e-03 3.8054488547454152e-01 0.0000000000000000e+00  2.6279734868349044e-03 -4.8564533879816685e-01 0.0000000000000000e+00  -3.1374710821380165e-02 3.4330139288382899e-01 0.0000000000000000e+00  -1.6419507124220148e-02 4.3632739717450014e-01 0.0000000000000000e+00  6.2138786260895074e-03 5.1601256035843845e-01 0.0000000000000000e+00  1.2525955877310591e-01 4.2462791196840033e-01 0.0000000000000000e+00  3.4097352284863514e-01 -6.8562577119094983e-02 0.0000000000000000e+00  6.9128718262827030e-03 3.1534627672498539e-01 0.0000000000000000e+00  -1.7068328896059238e-02 1.0627038356514754e-01 0.0000000000000000e+00  6.3220261602436170e-02 5.8260640595409641e-01 0.0000000000000000e+00  1.1194139528173852e-02 -4.0471271061620639e-01 0.0000000000000000e+00  8.8823279393687518e-03 2.2683631181622596e-01 0.0000000000000000e+00  2.4160123450394328e-02 4.1541042443875553e-01 0.0000000000000000e+00  4.3649344191897539e-02 -6.5272586665287249e-02 0.0000000000000000e+00  -2.2240170569239076e-02 -2.0624561878592984e-01 0.0000000000000000e+00  7.7708391804433207e-03 4.8754765858495136e-01 0.0000000000000000e+00  9.9629965315087988e-03 4.6861660321552240e-01 0.0000000000000000e+00  -5.2036001679548525e-06 1.7287742306537285e-05 0.0000000000000000e+00  -1.4494267971447078e-04 -5.3079323114763635e-05 0.0000000000000000e+00  3.1611319968196418e-02 4.7448068415065864e-01 0.0000000000000000e+00  -2.1894028541618132e-02 -3.9289224118910571e-01 0.0000000000000000e+00  1.2076731902628698e-02 3.8780787650203252e-01 0.0000000000000000e+00  -2.1079577392147650e-02 -3.8451463136388325e-01 0.0000000000000000e+00  -4.5543407788059250e-04 -4.4266664949904144e-04 0.0000000000000000e+00  -5.0994409963995242e-02 4.7424970151460921e-01 0.0000000000000000e+00  -2.3722222179065216e-03 -3.6981085888961518e-01 0.0000000000000000e+00  6.0216898979126042e-02 -4.0662560986166935e-01 0.0000000000000000e+00  1.2755756116820794e-02 -4.3031233832790861e-01 0.0000000000000000e+00  9.2117463096384015e-03 4.7825274693974040e-01 0.0000000000000000e+00  1.8874000831865104e-05 2.1485441619668865e-05 0.0000000000000000e+00  9.4474179094864959e-05 -2.1504496296812932e-04 0.0000000000000000e+00  3.9587467408925809e-06 -3.1575488898103391e-06 0.0000000000000000e+00  -3.3518990238932201e-03 4.2573791717539466e-01 0.0000000000000000e+00  2.7443678899925212e-03 -3.5566603527526847e-01 0.0000000000000000e+00  1.4044976316712854e-01 1.0030216300771881e-02 0.0000000000000000e+00  1.3510824739107549e-02 -3.4147645047130898e-01 0.0000000000000000e+00  -5.8387493595047350e-02 -1.4573189263853092e-01 0.0000000000000000e+00  5.4509858241593337e-02 -2.7083727666974777e-01 0.0000000000000000e+00  -3.0917692647175251e-03 -3.7569822609048575e-01 0.0000000000000000e+00  -2.6588406347440080e-01 5.1778481701029710e-01 0.0000000000000000e+00  -1.6165928454606174e-01 -3.3360799390557960e-01 0.0000000000000000e+00  4.8403653672384562e-04 -4.1379812230286179e-04 0.0000000000000000e+00  4.4529900691478414e-04 -4.6885400025400959e-04 0.0000000000000000e+00  -4.5236374315322283e-04 -4.2087878037840303e-04 0.0000000000000000e+00  -2.9439444966946205e-04 -4.5063144188344002e-05 0.0000000000000000e+00  8.3711933827447917e-05 -1.5392754688293601e-04 0.0000000000000000e+00  -1.4110560335996844e-03 3.0041436575799901e-05 0.0000000000000000e+00  4.5821167543679334e-04 -9.6190757560361893e-05 0.0000000000000000e+00  1.6203390501242710e-03 1.0003903375633502e-04 0.0000000000000000e+00  2.2255566567883000e-04 -1.6280623342018749e-04 0.0000000000000000e+00  -1.2317982506230398e-02 -3.2985057630357445e-01 0.0000000000000000e+00  1.9443354396464932e-01 9.6442443714662401e-02 0.0000000000000000e+00  2.4564771076214395e-02 -3.4709195877832616e-01 0.0000000000000000e+00  -8.1193037080606975e-02 -1.0706338596807000e-01 0.0000000000000000e+00  1.5298020429895387e-02 -4.9851526183902983e-01 0.0000000000000000e+00  3.8372821233848969e-02 -1.7310424236875904e-01 0.0000000000000000e+00  -7.9535185339714536e-03 -9.8401063206065134e-02 0.0000000000000000e+00  -2.9165613522730637e-02 -4.7090869071942104e-01 0.0000000000000000e+00  -4.4947830706844440e-03 2.3394969399369187e-01 0.0000000000000000e+00  4.0092958770613927e-03 5.1317983458804661e-01 0.0000000000000000e+00  -5.0295032136338279e-03 1.5827471040831928e-01 0.0000000000000000e+00  2.3872745855339043e-03 2.8164526059562184e-01 0.0000000000000000e+00  5.2209828166310240e-03 -4.2109139522134231e-01 0.0000000000000000e+00  -1.7878929723824922e-02 4.3890447076920269e-01 0.0000000000000000e+00  -2.1013801553684080e-02 4.3433424328369019e-01 0.0000000000000000e+00  -5.9234308571572171e-03 4.1453637232656004e-01 0.0000000000000000e+00  1.0105883853876762e-02 -3.8742110470118069e-01 0.0000000000000000e+00  2.6211568049629461e-02 -4.2451355443389338e-01 0.0000000000000000e+00  -3.2698637098572771e-03 2.8345417113547910e-01 0.0000000000000000e+00  1.5918736289347514e-02 4.6030602113760355e-01 0.0000000000000000e+00  -1.3305863481479116e-02 -4.4490824180953492e-01 0.0000000000000000e+00  -6.0970269770598627e-02 -1.9725338487778368e-01 0.0000000000000000e+00  -3.5309195412850708e-01 -7.8044683973708456e-03 0.0000000000000000e+00  -2.0765548202779613e-01 -2.6673345313009220e-02 0.0000000000000000e+00  1.5664348523012413e-02 4.2133938911097807e-01 0.0000000000000000e+00  -6.7780898392486619e-02 -1.6969379996930897e-01 0.0000000000000000e+00  -1.0048643031999408e-02 -4.0866666718129918e-01 0.0000000000000000e+00  7.8406260745771880e-03 1.3638679365541587e-01 0.0000000000000000e+00  -1.5989166603952948e-03 -2.6148892136801272e-01 0.0000000000000000e+00  2.8881772876591091e-02 4.8466297072002218e-01 0.0000000000000000e+00  -1.0597298073922829e-02 -3.3474607265980688e-01 0.0000000000000000e+00  -4.5003247135607431e-02 -2.3344974224762563e-01 0.0000000000000000e+00  -8.3349341595287587e-03 -4.4621599326801631e-01 0.0000000000000000e+00  1.0293106728816436e-02 -4.0613248527018136e-01 0.0000000000000000e+00  9.5277674635365611e-03 -1.8491170987758498e-01 0.0000000000000000e+00  -4.3752704456935500e-02 7.8783577644393332e-01 0.0000000000000000e+00  3.2512659310921094e-02 5.1356000865507411e-03 0.0000000000000000e+00  1.9526312058460046e-02 -4.6244929848620270e-01 0.0000000000000000e+00  2.2298352839632439e-03 -4.3016700561781696e-01 0.0000000000000000e+00  5.9815664986410284e-03 -5.0282282625550490e-01 0.0000000000000000e+00  -1.2228689770824672e-02 -2.7865238902770645e-01 0.0000000000000000e+00  9.2121757595996431e-02 7.0435666238207928e-01 0.0000000000000000e+00  -5.0348547088087295e-02 -1.4922621908912054e-01 0.0000000000000000e+00  9.0317531065233219e-04 4.6234141428445968e-01 0.0000000000000000e+00  -1.8934895153576995e-02 1.7996652199300758e-02 0.0000000000000000e+00  2.6833715245517940e-02 -4.6687552394469267e-01 0.0000000000000000e+00  4.0234883591802337e-03 -3.7553830858092307e-01 0.0000000000000000e+00  1.0076887284444877e-02 -4.9071055360374111e-01 0.0000000000000000e+00  1.4456916651249424e-02 4.4783596940373593e-01 0.0000000000000000e+00  7.7809760417791501e-02 2.7342799662498607e-01 0.0000000000000000e+00  1.0795219232360199e-01 6.1074673739068872e-02 0.0000000000000000e+00  4.9876930559068888e-02 -4.5629418641366309e-01 0.0000000000000000e+00  1.9002069573609628e-02 5.6783977754369930e-01 0.0000000000000000e+00  -7.0670557594377974e-03 4.0031243148035822e-01 0.0000000000000000e+00  4.9565915770042766e-03 -4.3327269373448435e-01 0.0000000000000000e+00  1.1310935606960346e-02 4.0829625111735685e-01 0.0000000000000000e+00  -3.1518772541443529e-02 5.9576517993151812e-01 0.0000000000000000e+00  -1.6848425529076741e-01 3.3803389106863418e-01 0.0000000000000000e+00  2.6420564521570191e-03 -2.3730293971812141e-01 0.0000000000000000e+00  2.4632591408582993e-01 -1.2839504181029901e-01 0.0000000000000000e+00  1.8065393672378721e-02 4.8794473218667905e-01 0.0000000000000000e+00  -6.0581245426328374e-02 3.7060062828275075e-01 0.0000000000000000e+00  2.5061424538117389e-03 -4.4066408793147760e-01 0.0000000000000000e+00  2.1953631272827404e-01 7.0190454264229230e-01 0.0000000000000000e+00  1.8514553980796631e-02 1.8350775038088493e-01 0.0000000000000000e+00  3.2624400661402048e-01 4.8247800776224758e-01 0.0000000000000000e+00  4.8160780488000821e-01 3.4220623035490588e-02 0.0000000000000000e+00  -1.1466522796257842e-04 -1.0297169367915432e-04 0.0000000000000000e+00  3.8344009017538663e-02 1.5152370138650859e-01 0.0000000000000000e+00  -1.9684219202912166e-02 -3.0114142181754272e-01 0.0000000000000000e+00  -8.8666167003012917e-03 4.7609723614732480e-01 0.0000000000000000e+00  -4.2201986699261716e-05 -2.0203176610776664e-04 0.0000000000000000e+00  8.2229887611582773e-05 -5.2795437920064820e-05 0.0000000000000000e+00  4.9323837888599047e-03 3.9728364578130604e-01 0.0000000000000000e+00  4.7008276790840665e-02 -3.4972494523993874e-01 0.0000000000000000e+00  2.4713186026033389e-03 4.8054048586634263e-01 0.0000000000000000e+00  1.8825199301856253e-02 -1.6259916317337778e-01 0.0000000000000000e+00  3.9358952018312909e-02 -2.2998654197958596e-01 0.0000000000000000e+00  2.2487169896501387e-03 5.1112344488284267e-01 0.0000000000000000e+00  3.4187081053967588e-04 -3.1788224421488959e-04 0.0000000000000000e+00  4.5604513837075235e-02 -3.9640234317827178e-01 0.0000000000000000e+00  3.2553007902347560e-02 4.4601708213472346e-01 0.0000000000000000e+00  -1.6684783994910610e-02 2.5009719174259343e-01 0.0000000000000000e+00  -7.1986917291029812e-03 4.6905399323953961e-01 0.0000000000000000e+00  3.4020997239462012e-03 2.8629833364501811e-01 0.0000000000000000e+00  1.7170611368018614e-02 -1.1379594267606397e-01 0.0000000000000000e+00  -2.4541503558839976e-04 -1.1502174469142810e-01 0.0000000000000000e+00  1.1310197466831937e-02 3.2612486589959877e-01 0.0000000000000000e+00  -1.0914467858387972e-02 1.9822314406897232e-01 0.0000000000000000e+00  4.2126684920895842e-04 -3.3048702602079242e-04 0.0000000000000000e+00  -5.4320976658111296e-03 -2.1702275909609331e-01 0.0000000000000000e+00  -3.4629903319656225e-03 -1.5017259486421160e-03 0.0000000000000000e+00  -2.1867712186840625e-05 -4.1191374262418765e-05 0.0000000000000000e+00  4.4079518630352303e-03 -2.3107811412889262e-01 0.0000000000000000e+00  1.1085698039547301e-02 -3.5623930422313344e-01 0.0000000000000000e+00  2.6202330631337395e-02 -4.3115334843520131e-01 0.0000000000000000e+00  6.6715244186927713e-04 -4.4047865701981170e-01 0.0000000000000000e+00  2.0879696112940035e-02 -1.1181214353837760e-01 0.0000000000000000e+00  1.4105641966823080e-02 -4.3638868509914125e-01 0.0000000000000000e+00  -9.8824776588353550e-02 4.5388594634557779e-02 0.0000000000000000e+00  -2.6199290095950484e-02 4.2281541889149721e-01 0.0000000000000000e+00  4.3126944091737415e-03 -4.6800613538338803e-01 0.0000000000000000e+00  7.9134417109074040e-02 4.4654825501186257e-01 0.0000000000000000e+00  2.0270155149511422e-02 -4.7480793749821937e-01 0.0000000000000000e+00  -3.8110221840372210e-01 1.0508007886076473e-01 0.0000000000000000e+00  -7.9012322675555066e-03 1.4431609559746378e-01 0.0000000000000000e+00  -2.1508797777074512e-02 -4.5454394506992213e-01 0.0000000000000000e+00  -2.0619570897996001e-02 3.5203834339251139e-01 0.0000000000000000e+00  -7.7360392291973737e-02 -2.4588417336596277e-01 0.000