<?xml version="1.0"?>
<VTKFile type="UnstructuredGrid"  version="0.1"  >
<UnstructuredGrid>
<Piece  NumberOfPoints="4835" NumberOfCells="9296">
<Points>
<DataArray  type="Float64"  NumberOfComponents="3"  format="ascii">0 1.5 0  -0 0.1307014797437256 0  0.01134725726173103 0.1483581566929452 0  0.04283342385313163 0.181379897845022 0  0.08000000000000007 0.2078460969082653 0  0.1215036888038188 0.2268001964915204 0  0.1658444388144116 0.2375571460514239 0  0.2114196597976982 0.2397281614039219 0  0.2565821445222626 0.23323477639765 0  0.2996996031204527 0.2183116788850844 0  0.3392136582970876 0.1954982284920806 0  0.3736961691452169 0.1656189627557069 0  0.4019008478794835 0.1297537961893434 0  0.4059948616314525 0.1218125174167552 0  0.4254856317806581 0.1498156710261111 0  0.4592156240140376 0.1818784194956707 0  0.498709345141744 0.2064950441012706 0  0.5423499175804942 0.222657737339227 0  0.588350691167096 0.2297047966493422 0  0.6348283888260526 0.2273477145954656 0  0.6798802081543086 0.2156829903938285 0  0.7216617223752013 0.1951881792237927 0  0.7584623913874079 0.1667023410626976 0  0.7879811633353602 0.1323170874919288 0  0.8152477706948351 0.1684239109116393 0  0.849341340905186 0.1995043068200599 0  0.8885654110558655 0.2237908228387656 0  0.9315842524819793 0.2404564107932048 0  0.9769329101341745 0.2489335440737586 0  1.023067089865825 0.2489335440737586 0  1.068415747518021 0.2404564107932048 0  1.111434588944135 0.2237908228387656 0  1.150658659094814 0.1995043068200599 0  1.184752229305165 0.1684239109116393 0  1.212554283932403 0.1316080407193389 0  1.233118057351089 0.09031041654678823 0  1.245743274920975 0.04593737945414259 0  1.25 0 0  1.36108673858246 0 0  1.36108673858246 0.02281345039300389 0  1.369721686332521 0.06761581364194322 0  1.386679492322819 0.1099743652145785 0  1.411347257261731 0.1483581566929452 0  1.442833423853132 0.181379897845022 0  1.48 0.2078460969082653 0  1.521503688803819 0.2268001964915204 0  1.565844438814412 0.2375571460514239 0  1.611419659797698 0.2397281614039219 0  1.656582144522263 0.23323477639765 0  1.699699603120453 0.2183116788850844 0  1.739213658297088 0.1954982284920806 0  1.765497292517293 0.1727233297951148 0  1.79 0.1905255888325765 0  1.832016261237511 0.2092324335849338 0  1.877003738081116 0.2187948169810202 0  1.922996261918884 0.2187948169810201 0  1.967983738762488 0.2092324335849338 0  2.01 0.1905255888325765 0  2.047208733398949 0.1634918616050267 0  2.077983738762488 0.1293127555043441 0  2.087980221556173 0.1119983394086949 0  2.111347257261731 0.1483581566929452 0  2.142833423853131 0.181379897845022 0  2.18 0.2078460969082653 0  2.221503688803819 0.2268001964915204 0  2.265844438814411 0.2375571460514239 0  2.311419659797698 0.2397281614039219 0  2.356582144522263 0.23323477639765 0  2.399699603120453 0.2183116788850844 0  2.439213658297088 0.1954982284920806 0  2.457172785224357 0.179936556425434 0  2.459215624014038 0.1818784194956707 0  2.498709345141744 0.2064950441012706 0  2.542349917580494 0.222657737339227 0  2.588350691167096 0.2297047966493422 0  2.634828388826053 0.2273477145954656 0  2.679880208154309 0.2156829903938285 0  2.721661722375202 0.1951881792237927 0  2.758462391387408 0.1667023410626976 0  2.788775591477674 0.1313916894718022 0  2.811360296672653 0.09070184667606328 0  2.825291886488074 0.04629865962039181 0  2.83 0 0  3 0 0  3 1.5 0  0 0.8023345134541607 0  0.4157402467060553 0.1358140942214332 0  3 0.75 0  1.5 1.5 0  0 0.4665179965989431 0  3 0.375 0  0 0.2986097381713344 0  0 0.21465560895753 0  0 0.1726785443506278 0  0 0.1516900120471767 0  2.25 1.5 0  0.75 1.5 0  1.169989811679434 0.9093651732355621 0  1.875 0.9142758100523694 0  0.5779365036100435 0.9330077223331824 0  2.43246936225428 0.7976868957014953 0  3 1.125 0  2.625 1.5 0  0.375 1.5 0  0 1.15116725672708 0  1.449253057879235 0.6213873587688492 0  0.7697361971202799 0.5943793911944208 0  0.3630076616442724 0.6080350564914153 0  2.069570984533324 0.5812833454367354 0  1.875 1.5 0  1.125 1.5 0  2.4375 1.173854331507092 0  0.8831005780031504 1.150004411874495 0  1.52207987625039 0.9714054497350916 0  2.0625 1.207137905026185 0  1.107793318688589 0.5766433232347881 0  1.3125 1.2274095306559 0  2.729985961523573 0.9375 0  2.711750443384031 0.5625 0  1.6875 1.243073622519403 0  1.760894209596057 0.6242614373612321 0  0.2643049832376852 0.9767508850906206 0  0.4566194854768236 1.209399638766609 0  2.728217267602858 1.228217267602858 0  2.374499195658668 0.518153287180279 0  2.169650674143702 0.9320836008992801 0  0.8550719231757007 0.8663457099410541 0  1.303567858855371 0.4078893824383345 0  0.2133194436665546 1.297827371069245 0  0.5308017499037517 0.4517023193912283 0  1.083077097725883 1.270382833575872 0  0.6830238102386342 1.274223132985906 0  2.250983943328481 0.6895458766515071 0  1.81089184968521 0.4192208869708923 0  1.679274712803154 0.8238291020339636 0  1.5785148524717 0.4510287526682343 0  0 0.6344262550265519 0  0.2138866804674432 0.765685327335986 0  0.5683532856219899 0.6602211278972628 0  0.9375 1.5 0  0.93201471049342 0.4568525359126817 0  1.262687644113192 0.7198627504483751 0  0.4154000952342595 0.8069446327163143 0  0.2139559556345817 0.4540330649264536 0  2.06977986811652 0.3813318272583126 0  0.7200651071201811 0.4061566188086219 0  1.932157822851692 0.7243325602448901 0  0.9441947922338874 0.689010158618046 0  3 1.3125 0  2.8125 1.5 0  0.5625 1.5 0  1.865575888969794 1.126762336039809 0  1.691368628814911 1.054521333692312 0  2.243682835689564 1.11932177110543 0  2.294933652681559 1.30886281903233 0  2.4375 1.5 0  2.385653526545621 0.9864303388879195 0  2.560603055863368 1.320052196970997 0  2.605098352881707 1.08210421072607 0  2.797310903081369 0.7462827406561878 0  1.497248537655819 1.30111187331848 0  1.6875 1.5 0  3 0.5625 0  3 0.9375 0  1.3125 1.5 0  2.0625 1.5 0  3 0.1875 0  0.1875 1.5 0  0.9978323986844071 0.9954535003819682 0  0.7455388243606953 1.020382929522352 0  1.904625246064701 1.312514164033404 0  1.15622562020362 1.097022204090454 0  1.332774827327096 1.015638362851981 0  2.617489052932561 0.7904306825848915 0  2.798834931624827 0.3810601956207291 0  2.518702939674024 0.6340258449062608 0  1.42862153170688 0.8082655083169574 0  2.016051725629557 1.02698392558818 0  2.557580898838836 0.4303899543284488 0  0.9143579924460792 1.324371521638632 0  0.6907201107072946 0.792483910827579 0  0 1.32558362836354 0  0 0.9767508850906206 0  0.6046140448732628 1.120294499938289 0  1.129353874055204 0.4037183319394277 0  2.240578803971554 0.4086758810341738 0  1.544887400155686 1.138911442832316 0  2.828734594747712 1.083464790593587 0  0.401358428169992 0.3487630281226344 0  0.1737226743516005 1.126953194380642 0  1.219293394173851 1.36370476532795 0  2.095593203128485 0.7438044944874065 0  1.099947866649755 0.7404984974094087 0  0.4225987016856009 0.9654760294046846 0  1.265404984472296 0.5615537191035901 0  1.908099381276504 0.55154028811489 0  1.605233217264331 0.6055204891939014 0  0.2070403235706232 0.6098576665994301 0  0.46875 1.369568887475175 0  2.529999076220762 0.9220559311443081 0  0.3296306516835505 1.118561581461605 0  2.136891098712708 1.353568952513092 0  0.1250262355603041 0.8895426992723907 0  2.286468869522623 0.8363516131379349 0  2.03024950667879 0.8782110935537075 0  2.71875 1.380113023166798 0  2.851157149000174 1.312122703709591 0  2.855875221692015 0.6072101925796368 0  1.766081959310164 1.371536811259701 0  2.417227117459742 0.3724437385102629 0  1.365276810157265 1.363519047380362 0  1.451310499971155 0.3640091006357036 0  2.211012611580202 0.5503989260541815 0  1.306789156675977 0.2570819477057019 0  2.872418607762505 0.256220469598872 0  2.896902016958361 0.84375 0  0.6487095286926469 0.5256523827174592 0  1.021477811485347 1.13286821063065 0  1.622350554793597 1.371881362989231 0  1.297557547403682 0.854343314165958 0  0.5529398034156436 0.7974238691464364 0  1.000783388185185 0.848708117631217 0  0.8152141294141361 0.735251676415229 0  2.383386472338196 0.654760318649699 0  1.031024064601143 1.39833771698851 0  1.812756223744312 0.7919737740986065 0  2.902150447032281 0.46875 0  1.558478314279628 0.7430881247578319 0  2.428095049619715 1.306700780290589 0  0.3309906154406318 1.369459454266083 0  0.117457385934373 0.361895434578648 0  0.4016309285334721 0.4812757168525422 0  1.933925005895449 0.3564723397117748 0  0.7479761182598068 1.155601287121883 0  0.09711831342126455 1.23837544254531 0  1.384025258268523 0.5094422387329146 0  2.188092881729461 1.235445092789212 0  0.116614462422195 1.388212202394539 0  0.5993432477835932 1.374610260003488 0  0.8731519049868882 1.022757560732678 0  0.1109021857268646 0.5275252102504697 0  1.703820060431276 0.5017282682884084 0  0.1118224159219883 0.6921053365242938 0  0.3267069786561488 1.244030051070764 0  2.878127312164905 0.9679608000003684 0  1.408346090782441 1.129729637108486 0  0.8047358880839842 0.3153623688883521 0  2.6405066654848 0.6664933064830099 0  0.4805702216488833 1.081724858267193 0  2.668084598222495 0.3562155878484895 0  2.138121375887776 1.052804865904559 0  1.96875 1.5 0  0.4891907154726056 0.5668366043293971 0  0.1473863332166031 1.0086557402922 0  2.558860649578938 1.196592162044302 0  1.717555244640741 0.3396535732296396 0  0.84375 1.5 0  0.7839942032523698 1.367093097528149 0  3 1.40625 0  2.484124862262918 1.060073596740424 0  3 1.21875 0  2.34375 1.5 0  0.8196209764267471 1.251369088398821 0  2.023202270335131 1.319214170177879 0  0.5721208504581607 1.233781127425821 0  1.984735816620384 0.462442873488178 0  0.6955333931194808 0.9118686683832042 0  1.19123464962554 1.213906677421382 0  0.8929803638185398 0.5752987850534633 0  1.566736823664244 0.8614646887466211 0  1.808684073906441 1.017786844668201 0  1.719105195888173 0.9374041347540488 0  1.671476674178274 0.70476362875428 0  1.218260709491531 0.330629071498573 0  2.839021519587611 1.19788439058923 0  0.5170070740021471 0.3361933937254621 0  1.393527188254162 0.91788143976
[...]
<PointData  Tensors="f_1784"> 
<DataArray  type="Float64"  Name="f_1784"  NumberOfComponents="9" format="ascii">-1.4788066416820016e+00 -6.6796758317167235e+00 0.0000000000000000e+00 -6.6796758317167235e+00 -1.6685540651167994e+01 0.0000000000000000e+00 0.0000000000000000e+00 0.0000000000000000e+00 0.0000000000000000e+00  2.4316374605543643e+01 2.6591990007869448e-01 0.0000000000000000e+00 2.6591990007869448e-01 2.3958155298688450e+01 0.0000000000000000e+00 0.0000000000000000e+00 0.0000000000000000e+00 0.0000000000000000e+00  2.4281358227378924e+01 -5.1544519778028774e-01 0.0000000000000000e+00 -5.1544519778028774e-01 1.9363539188221974e+01 0.0000000000000000e+00 0.0000000000000000e+00 0.0000000000000000e+00 0.0000000000000000e+00  4.1620463685876025e+01 -1.4097785679805133e+01 0.0000000000000000e+00 -1.4097785679805133e+01 1.1628267381448971e+00 0.0000000000000000e+00 0.0000000000000000e+00 0.0000000000000000e+00 0.0000000000000000e+00  9.8430284105405804e+01 -7.0117454585283554e+01 0.0000000000000000e+00 -7.0117454585283554e+01 -4.2950127722073461e+01 0.0000000000000000e+00 0.0000000000000000e+00 0.0000000000000000e+00 0.0000000000000000e+00  1.0555145721543236e+02 -8.4415261760628297e+01 0.0000000000000000e+00 -8.4415261760628297e+01 -7.4771727888488670e+01 0.0000000000000000e+00 0.0000000000000000e+00 0.0000000000000000e+00 0.0000000000000000e+00  -4.1584486535680210e+00 1.5337423514623813e+01 0.0000000000000000e+00 1.5337423514623813e+01 2.4866847387012978e+01 0.0000000000000000e+00 0.0000000000000000e+00 0.0000000000000000e+00 0.0000000000000000e+00  3.4895228667896113e+01 1.5898688313185073e+02 0.0000000000000000e+00 1.5898688313185073e+02 -2.2199680402950657e+00 0.0000000000000000e+00 0.0000000000000000e+00 0.0000000000000000e+00 0.0000000000000000e+00  2.0347419993292178e+01 5.5960076546955719e+01 0.0000000000000000e+00 5.5960076546955719e+01 1.7116508801441150e+01 0.0000000000000000e+00 0.0000000000000000e+00 0.0000000000000000e+00 0.0000000000000000e+00  -4.9315252443426353e+01 5.1184059612382793e+00 0.0000000000000000e+00 5.1184059612382793e+00 9.8622776349977869e+01 0.0000000000000000e+00 0.0000000000000000e+00 0.0000000000000000e+00 0.0000000000000000e+00  -1.4930973884125274e+02 -1.6572855915514229e+01 0.0000000000000000e+00 -1.6572855915514229e+01 1.8382462465999865e+02 0.0000000000000000e+00 0.0000000000000000e+00 0.0000000000000000e+00 0.0000000000000000e+00  -1.1269959883867251e+02 -1.6953851967617897e+01 0.0000000000000000e+00 -1.6953851967617897e+01 1.5051267286723572e+02 0.0000000000000000e+00 0.0000000000000000e+00 0.0000000000000000e+00 0.0000000000000000e+00  2.6381826178225431e+01 4.8872745048096098e+00 0.0000000000000000e+00 4.8872745048096098e+00 2.8682126365380491e+01 0.0000000000000000e+00 0.0000000000000000e+00 0.0000000000000000e+00 0.0000000000000000e+00  2.4425095222627828e+01 -7.9418640786195187e+00 0.0000000000000000e+00 -7.9418640786195187e+00 2.4420988129742057e+01 0.0000000000000000e+00 0.0000000000000000e+00 0.0000000000000000e+00 0.0000000000000000e+00  5.8222062509542098e+01 -8.4693605022774481e+00 0.0000000000000000e+00 -8.4693605022774481e+00 -1.6632982408477684e+01 0.0000000000000000e+00 0.0000000000000000e+00 0.0000000000000000e+00 0.0000000000000000e+00  7.6952120474382028e+01 -2.1329682137870130e+01 0.0000000000000000e+00 -2.1329682137870130e+01 -4.0665845051608869e+01 0.0000000000000000e+00 0.0000000000000000e+00 0.0000000000000000e+00 0.0000000000000000e+00  -4.0404671090160406e+01 6.6266320997766016e+01 0.0000000000000000e+00 6.6266320997766016e+01 7.7687318523820323e+01 0.0000000000000000e+00 0.0000000000000000e+00 0.0000000000000000e+00 0.0000000000000000e+00  -6.2907598779151598e+01 1.2275291043580526e+02 0.0000000000000000e+00 1.2275291043580526e+02 1.1401898885880779e+02 0.0000000000000000e+00 0.0000000000000000e+00 0.0000000000000000e+00 0.0000000000000000e+00  -2.4719342037159198e+00 2.5270136854350479e+01 0.0000000000000000e+00 2.5270136854350479e+01 5.9967025784216844e+01 0.0000000000000000e+00 0.0000000000000000e+00 0.0000000000000000e+00 0.0000000000000000e+00  3.8293623770714325e+00 -8.2140112392558578e+01 0.0000000000000000e+00 -8.2140112392558578e+01 6.5324464399830802e+01 0.0000000000000000e+00 0.0000000000000000e+00 0.0000000000000000e+00 0.0000000000000000e+00  -9.8738429052933299e+01 -8.7809298884301612e+01 0.0000000000000000e+00 -8.7809298884301612e+01 1.1275259612332945e+02 0.0000000000000000e+00 0.0000000000000000e+00 0.0000000000000000e+00 0.0000000000000000e+00  2.7166511379672301e+01 -2.3602013513588393e+01 0.0000000000000000e+00 -2.3602013513588393e+01 1.3409131822861603e+01 0.0000000000000000e+00 0.0000000000000000e+00 0.0000000000000000e+00 0.0000000000000000e+00  6.4297772015173379e+01 6.6405950846263622e+00 0.0000000000000000e+00 6.6405950846263622e+00 -2.9709918914549231e+01 0.0000000000000000e+00 0.0000000000000000e+00 0.0000000000000000e+00 0.0000000000000000e+00  1.6221783004392957e+01 4.2531142998246798e+00 0.0000000000000000e+00 4.2531142998246798e+00 2.3054349162274178e+01 0.0000000000000000e+00 0.0000000000000000e+00 0.0000000000000000e+00 0.0000000000000000e+00  -9.8857251794612097e+01 9.3732932280266823e+00 0.0000000000000000e+00 9.3732932280266823e+00 1.3761822223648045e+02 0.0000000000000000e+00 0.0000000000000000e+00 0.0000000000000000e+00 0.0000000000000000e+00  -1.7983067999746333e+02 4.1084690218285147e+01 0.0000000000000000e+00 4.1084690218285147e+01 2.0856180263425637e+02 0.0000000000000000e+00 0.0000000000000000e+00 0.0000000000000000e+00 0.0000000000000000e+00  -7.5525981747882980e+01 2.7999407481816338e+01 0.0000000000000000e+00 2.7999407481816338e+01 1.3354720091706318e+02 0.0000000000000000e+00 0.0000000000000000e+00 0.0000000000000000e+00 0.0000000000000000e+00  3.9825168614916424e+00 -1.6020121265338553e+01 0.0000000000000000e+00 -1.6020121265338553e+01 2.3199311185699361e+01 0.0000000000000000e+00 0.0000000000000000e+00 0.0000000000000000e+00 0.0000000000000000e+00  1.8135441296025657e+01 -1.1359816634855012e+02 0.0000000000000000e+00 -1.1359816634855012e+02 2.7452003642840424e+01 0.0000000000000000e+00 0.0000000000000000e+00 0.0000000000000000e+00 0.0000000000000000e+00  3.0544238493206510e+01 -5.5994951330812654e+01 0.0000000000000000e+00 -5.5994951330812654e+01 3.0447494713063317e+00 0.0000000000000000e+00 0.0000000000000000e+00 0.0000000000000000e+00 0.0000000000000000e+00  7.7472259892985761e+01 7.2826817490171777e+01 0.0000000000000000e+00 7.2826817490171777e+01 -3.6459424705261959e+01 0.0000000000000000e+00 0.0000000000000000e+00 0.0000000000000000e+00 0.0000000000000000e+00  1.1387385340698347e+02 7.1540975683714620e+01 0.0000000000000000e+00 7.1540975683714620e+01 -6.8811952875758692e+01 0.0000000000000000e+00 0.0000000000000000e+00 0.0000000000000000e+00 0.0000000000000000e+00  3.1332000034087233e+01 1.8237323759444173e+01 0.0000000000000000e+00 1.8237323759444173e+01 1.5983074658506160e+01 0.0000000000000000e+00 0.0000000000000000e+00 0.0000000000000000e+00 0.0000000000000000e+00  -7.4314335829059260e+01 3.5017375458279766e+01 0.0000000000000000e+00 3.5017375458279766e+01 1.1284851927540359e+02 0.0000000000000000e+00 0.0000000000000000e+00 0.0000000000000000e+00 0.0000000000000000e+00  -1.6513023970155939e+02 1.1466661756087571e+02 0.0000000000000000e+00 1.1466661756087571e+02 1.9752941112404216e+02 0.0000000000000000e+00 0.0000000000000000e+00 0.0000000000000000e+00 0.0000000000000000e+00  -1.4905449501774530e+02 1.5206559828215006e+02 0.0000000000000000e+00 1.5206559828215006e+02 1.7594544353659313e+02 0.0000000000000000e+00 0.0000000000000000e+00 0.0000000000000000e+00 0.0000000000000000e+00  -4.5875787522575180e+01 1.2001359431720243e+02 0.0000000000000000e+00 1.2001359431720243e+02 8.5317280164243058e+01 0.0000000000000000e+00 0.0000000000000000e+00 0.0000000000000000e+00 0.0000000000000000e+00  2.2013778357884082e+00 3.0562205038522119e+01 0.0000000000000000e+00 3.0562205038522119e+01 6.7227876476854817e+01 0.0000000000000000e+00 0.0000000000000000e+00 0.0000000000000000e+00 0.0000000000000000e+00  2.5896135272077188e+01 -5.5103672503012042e+00 0.0000000000000000e+00 -5.5103672503012042e+00 1.5356774254121998e+01 0.0000000000000000e+00 0.0000000000000000e+00 0.0000000000000000e+00 0.0000000000000000e+00  3.2036009984436213e+01 1.6286202697277606e+01 0.0000000000000000e+00 1.6286202697277606e+01 8.3763217674385171e+00 0.0000000000000000e+00 0.0000000000000000e+00 0.0000000000000000e+00 0.0000000000000000e+00  5.7342949841226542e+01 4.7832577316128010e+01 0.0000000000000000e+00 4.7832577316128010e+01 -2.0434285820890594e+01 0.0000000000000000e+00 0.0000000000000000e+00 0.0000000000000000e+00 0.0000000000000000e+00  5.7134642999158231e+01 3.7935044284831001e+01 0.0000000000000000e+00 3.7935044284831001e+01 -2.4032221314616816e+01 0.0000000000000000e+00 0.0000000000000000e+00 0.0000000000000000e+00 0.0000000000000000e+00  -2.1879424475964473e+01 1.3420995852766533e+01 0.0000000000000000e+00 1.3420995852766533e+01 6.4582616626964850e+01 0.0000000000000000e+00 0.0000000000000000e+00 0.0000000000000000e+00 0.0000000000000000e+00  -1.1349259921245265e+02 2.7049377633839061e+01 0.0000000000000000e+00 2.7049377633839061e+01 1.6095535010683076e+02 0.0000000000000000e+00 0.0000000000000000e+00 0.0000000000000000e+00 0.0000000000000000e+00  -1.0730412528759813e+02 1.4352575172611953e+01 0.0000000000000000e+00 1.4352575172611953e+01 1.3150298622924100e+02 0.0000000000000000e+00 0.0000000000000000e+00 0.0000000000000000e+00 0.0000000000000000e+00  -1.2687920372693419e+01 -2.0275607376910930e+01 0.0000000000000000e+00 -2.0275607376910930e+01 4.7977019505683216e+01 0.0000000000000000e+00 0.0000000000000000e+00 0.0000000000000000e+00 0.0000000000000000e+00  2.5345752442171818e+01 -9.9317588355775911e+01 0.0000000000000000e+00 -9.9317588355775911e+01 4.6147392498615112e+00 0.0000000000000000e+00 0.0000000000000000e+00 0.0000000000000000e+00 0.0000000000000000e+00  2.9025798688509408e+01 -1.0449462055538113e+02 0.0000000000000000e+00 -1.0449462055538113e+02 7.4263592144651529e+00 0.0000000000000000e+00 0.0000000000000000e+00 0.0000000000000000e+00 0.0000000000000000e+00  8.9307876959587844e+01 5.3169766608982151e+01 0.0000000000000000e+00 5.3169766608982151e+01 -5.0238986418522124e+01 0.0000000000000000e+00 0.0000000000000000e+00 0.0000000000000000e+00 0.0000000000000000e+00  9.2693075108184928e+01 1.1208136751745266e+02 0.0000000000000000e+00 1.1208136751745266e+02 -7.7694249899432577e+01 0.0000000000000000e+00 0.0000000000000000e+00 0.0000000000000000e+00 0.0000000000000000e+00  8.1352092281959486e+01 3.3522154920950001e+01 0.0000000000000000e+00 3.3522154920950001e+01 -3.3642566666124537e+01 0.0000000000000000e+00 0.0000000000000000e+00 0.0000000000000000e+00 0.0000000000000000e+00  1.8477531980637195e+01 1.4442526892491966e+01 0.0000000000000000e+00 1.4442526892491966e+01 -7.8401211508330604e-01 0.0000000000000000e+00 0.0000000000000000e+00 0.0000000000000000e+00 0.0000000000000000e+00  -4.3255669762809724e+01 3.2214634118855592e+01 0.0000000000000000e+00 3.2214634118855592e+01 5.8635251081911804e+01 0.0000000000000000e+00 0.0000000000000000e+00 0.0000000000000000e+00 0.0000000000000000e+00  6.6211857439026938e+00 -3.3111585626200423e+01 0.0000000000000000e+00 -3.3111585626200423e+01 3.1755321436208373e+01 0.0000000000000000e+00 0.0000000000000000e+00 0.0000000000000000e+00 0.0000000000000000e+00  3.0004229829871257e+01 -1.1610069053899026e+02 0.0000000000000000e+00 -1.1610069053899026e+02 1.0283834524133985e+01 0.0000000000000000e+00 0.0000000000000000e+00 0.0000000000000000e+00 0.0000000000000000e+00  2.5993082078455675e+01 -4.8554203103483410e+01 0.0000000000000000e+00 -4.8554203103483410e+01 1.0773078968850978e+01 0.0000000000000000e+00 0.0000000000000000e+00 0.0000000000000000e+00 0.0000000000000000e+00  8.5338782665487756e+01 8.5476476009618494e+01 0.0000000000000000e+00 8.5476476009618494e+01 -5.2791617515344292e+01 0.0000000000000000e+00 0.0000000000000000e+00 0.0000000000000000e+00 0.0000000000000000e+00  1.4291006006403839e+02 8.0226446562054605e+01 0.0000000000000000e+00 8.0226446562054605e+01 -9.8857900923025042e+01 0.0000000000000000e+00 0.0000000000000000e+00 0.0000000000000000e+00 0.0000000000000000e+00  6.1511774313352092e+01 1.4197521564191785e+01 0.0000000000000000e+00 1.4197521564191785e+01 -3.4938185722299181e+01 0.0000000000000000e+00 0.0000000000000000e+00 0.0000000000000000e+00 0.0000000000000000e+00  2.6516523204355568e+01 6.8938590656134080e+00 0.0000000000000000e+00 6.8938590656134080e+00 6.7461484412290806e+00 0.0000000000000000e+00 0.0000000000000000e+00 0.0000000000000000e+00 0.0000000000000000e+00  1.8891351185925611e+01 2.7777130826984359e-01 0.0000000000000000e+00 2.7777130826984359e-01 1.2808328614511906e+01 0.0000000000000000e+00 0.0000000000000000e+00 0.0000000000000000e+00 0.0000000000000000e+00  -7.1714346375501901e+00 -2.0698036953154433e+00 0.0000000000000000e+00 -2.0698036953154433e+00 2.5868057648283653e+01 0.0000000000000000e+00 0.0000000000000000e+00 0.0000000000000000e+00 0.0000000000000000e+00  3.5120859465291751e+01 -1.6345193633225321e+01 0.0000000000000000e+00 -1.6345193633225321e+01 -5.6428896903570376e+00 0.0000000000000000e+00 0.0000000000000000e+00 0.0000000000000000e+00 0.0000000000000000e+00  9.4481216889799313e+01 -6.7619070343391130e+01 0.0000000000000000e+00 -6.7619070343391130e+01 -5.8040258663584765e+01 0.0000000000000000e+00 0.0000000000000000e+00 0.0000000000000000e+00 0.0000000000000000e+00  9.6741571078007169e+01 -1.0445798775790404e+02 0.0000000000000000e+00 -1.0445798775790404e+02 -7.6205170275676309e+01 0.0000000000000000e+00 0.0000000000000000e+00 0.0000000000000000e+00 0.0000000000000000e+00  4.0053626359633036e+01 2.4905955649073640e+01 0.0000000000000000e+00 2.4905955649073640e+01 -4.2179126592394756e+00 0.0000000000000000e+00 0.0000000000000000e+00 0.0000000000000000e+00 0.0000000000000000e+00  5.2190466463291534e+00 9.8541181011876603e+01 0.0000000000000000e+00 9.8541181011876603e+01 2.8274982520130749e+01 0.0000000000000000e+00 0.0000000000000000e+00 0.0000000000000000e+00 0.0000000000000000e+00  -7.9526571686629808e+00 2.8648274585428601e+00 0.0000000000000000e+00 2.8648274585428601e+00 3.5980962734206571e+01 0.0000000000000000e+00 0.0000000000000000e+00 0.0000000000000000e+00 0.0000000000000000e+00  -9.7470613652931178e+01 -6.4234314789015599e+01 0.0000000000000000e+00 -6.4234314789015599e+01 1.1776116960192317e+02 0.0000000000000000e+00 0.0000000000000000e+00 0.0000000000000000e+00 0.0000000000000000e+00  -6.4840397845670751e+01 -6.3666694309718856e+01 0.0000000000000000e+00 -6.3666694309718856e+01 1.0099074017551688e+02 0.0000000000000000e+00 0.0000000000000000e+00 0.0000000000000000e+00 0.0000000000000000e+00  1.5513125144795584e+01 4.4042420897628265e+00 0.0000000000000000e+00 4.4042420897628265e+00 -3.2685475180617346e-01 0.0000000000000000e+00 0.0000000000000000e+00 0.0000000000000000e+00 0.0000000000000000e+00  1.3878993298752167e+01 -1.2231098268226008e+01 0.0000000000000000e+00 -1.2231098268226008e+01 5.8466037615162385e+00 0.0000000000000000e+00 0.0000000000000000e+00 0.0000000000000000e+00 0.0000000000000000e+00  7.6313824073190858e+01 -1.0536574883995394e+02 0.0000000000000000e+00 -1.0536574883995394e+02 -7.4530496281192640e+01 0.0000000000000000e+00 0.0000000000000000e+00 0.0000000000000000e+00 0.0000000000000000e+00  6.6770452374462522e+01 -6.0853361115803693e+01 0.0000000000000000e+00 -6.0853361115803693e+01 -4.2072103109723493e+01 0.0000000000000000e+00 0.0000000000000000e+00 0.0000000000000000e+00 0.0000000000000000e+00  1.8245909220755649e+01 1.3756896971719804e+01 0.0000000000000000e+00 1.3756896971719804e+01 8.7187964269832783e+00 0.0000000000000000e+00 0.0000000000000000e+00 0.0000000000000000e+00 0.0000000000000000e+00  -1.5791266325295876e+01 -1.8252201058935398e+01 0.0000000000000000e+00 -1.8252201058935398e+01 2.1022407251352764e+01 0.0000000000000000e+00 0.0000000000000000e+00 0.0000000000000000e+00 0.0000000000000000e+00  -1.0510681582049101e+02 -1.0844161377132774e+02 0.0000000000000000e+00 -1.0844161377132774e+02 1.6553553722966629e+02 0.0000000000000000e+00 0.0000000000000000e+00 0.0000000000000000e+00 0.0000000000000000e+00  -3.3317293205230118e+02 -1.1998528045706144e+02 0.0000000000000000e+00 -1.1998528045706144e+02 3.2849537754743324e+02 0.0000000000000000e+00 0.0000000000000000e+00 0.0000000000000000e+00 0.0000000000000000e+00  -2.9943631187350616e+02 -3.4740982847760769e+01 0.0000000000000000e+00 -3.4740982847760769e+01 2.7914732119771617e+02 0.0000000000000000e+00 0.0000000000000000e+00 0.0000000000000000e+00 0.0000000000000000e+00  -1.3604045645794363e+02 5.5639537010488880e+01 0.0000000000000000e+00 5.5639537010488880e+01 1.2741162642546790e+02 0.0000000000000000e+00 0.0000000000000000e+00 0.0000000000000000e+00 0.0000000000000000e+00  -4.3826890278314792e+01 4.1334055066932962e+01 0.0000000000000000e+00 4.1334055066932962e+01 5.0604674439539664e+01 0.0000000000000000e+00 0.0000000000000000e+00 0.0000000000000000e+00 0.0000000000000000e+00  -5.5085935788576492e+00 4.1971772008510355e-01 0.0000000000000000e+00 4.1971772008510355e-01 1.1225503514589134e+01 0.0000000000000000e+00 0.0000000000000000e+00 0.0000000000000000e+00 0.0000000000000000e+00  8.2585663728156486e+00 3.1191335835602509e+00 0.0000000000000000e+00 3.1191335835602509e+00 4.2073561810532345e+00 0.0000000000000000e+00 0.0000000000000000e+00 0.0000000000000000e+00 0.0000000000000000e+00  3.1339011928313042e+01 -8.4720378109499464e+01 0.0000000000000000e+00 -8.4720378109499464e+01 9.2687733842360743e+01 0.0000000000000000e+00 0.0000000000000000e+00 0.0000000000000000e+00 0.0000000000000000e+00  3.9695543962563471e+02 2.4689944275799945e+02 0.0000000000000000e+00 2.4689944275799945e+02 9.1351124587620063e+01 0.0000000000000000e+00 0.0000000000000000e+00 0.0000000000000000e+00 0.0000000000000000e+00  5.2521370824820810e+00 1.3413388011558973e+02 0.0000000000000000e+00 1.3413388011558973e+02 1.3856845584249772e+01 0.0000000000000000e+00 0.0000000000000000e+00 0.0000000000000000e+00 0.0000000000000000e+00  1.8824462438271716e+01 -7.0886520896588454e+00 0.0000000000000000e+00 -7.0886520896588454e+00 2.5105224521355844e+01 0.0000000000000000e+00 0.0000000000000000e+00 0.0000000000000000e+00 0.0000000000000000e+00  6.0474709040821153e+01 -2.2142072039649415e+02 0.0000000000000000e+00 -2.2142072039649415e+02 -7.4012404507721206e+00 0.0000000000000000e+00 0.0000000000000000e+00 0.0000000000000000e+00 0.0000000000000000e+00  4.2064718793209561e+00 -4.4437150682966600e+00 0.0000000000000000e+00 -4.4437150682966600e+00 -2.6737897875354761e+01 0.0000000000000000e+00 0.0000000000000000e+00 0.0000000000000000e+00 0.0000000000000000e+00  1.7759382398066432e+01 1.4730958837381479e+02 0.0000000000000000e+00 1.4730958837381479e+02 4.4701202452800919e+00 0.0000000000000000e+00 0.0000000000000000e+00 0.0000000000000000e+00 0.0000000000000000e+00  2.6173412200873202e+02 -6.5450549442166775e+01 0.0000000000000000e+00 -6.5450549442166775e+01 1.4562143637783102e+01 0.0000000000000000e+00 0.0000000000000000e+00 0.0000000000000000e+00 0.0000000000000000e+00  2.7220716388341792e+01 1.6579246663047601e+02 0.0000000000000000e+00 1.6579246663047601e+02 -5.4279387555917298e+00 0.0000000000000000e+00 0.0000000000000000e+00 0.0000000000000000e+00 0.0000000000000000e+00  1.1504447607143739e+01 6.8611391202462045e+01 0.0000000000000000e+00 6.8611391202462045e+01 3.0792643785942264e+01 0.0000000000000000e+00 0.0000000000000000e+00 0.0000000000000000e+00 0.0000000000000000e+00  1.2714595965978530e+01 4.4796514214350419e-01 0.0000000000000000e+00 4.4796514214350419e-01 2.9611477077112049e+01 0.0000000000000000e+00 0.0000000000000000e+00 0.0000000000000000e+00 0.0000000000000000e+00  2.0503054255356250e+01 2.0851437690574434e-01 0.0000000000000000e+00 2.0851437690574434e-01 2.3585469633564891e+01 0.0000000000000000e+00 0.0000000000000000e+00 0.0000000000000000e+00 0.00000000