<?xml version="1.0"?>
<VTKFile type="UnstructuredGrid"  version="0.1"  >
<UnstructuredGrid>
<Piece  NumberOfPoints="4835" NumberOfCells="9296">
<Points>
<DataArray  type="Float64"  NumberOfComponents="3"  format="ascii">0 1.5 0  -0 0.1307014797437256 0  0.01134725726173103 0.1483581566929452 0  0.04283342385313163 0.181379897845022 0  0.08000000000000007 0.2078460969082653 0  0.1215036888038188 0.2268001964915204 0  0.1658444388144116 0.2375571460514239 0  0.2114196597976982 0.2397281614039219 0  0.2565821445222626 0.23323477639765 0  0.2996996031204527 0.2183116788850844 0  0.3392136582970876 0.1954982284920806 0  0.3736961691452169 0.1656189627557069 0  0.4019008478794835 0.1297537961893434 0  0.4059948616314525 0.1218125174167552 0  0.4254856317806581 0.1498156710261111 0  0.4592156240140376 0.1818784194956707 0  0.498709345141744 0.2064950441012706 0  0.5423499175804942 0.222657737339227 0  0.588350691167096 0.2297047966493422 0  0.6348283888260526 0.2273477145954656 0  0.6798802081543086 0.2156829903938285 0  0.7216617223752013 0.1951881792237927 0  0.7584623913874079 0.1667023410626976 0  0.7879811633353602 0.1323170874919288 0  0.8152477706948351 0.1684239109116393 0  0.849341340905186 0.1995043068200599 0  0.8885654110558655 0.2237908228387656 0  0.9315842524819793 0.2404564107932048 0  0.9769329101341745 0.2489335440737586 0  1.023067089865825 0.2489335440737586 0  1.068415747518021 0.2404564107932048 0  1.111434588944135 0.2237908228387656 0  1.150658659094814 0.1995043068200599 0  1.184752229305165 0.1684239109116393 0  1.212554283932403 0.1316080407193389 0  1.233118057351089 0.09031041654678823 0  1.245743274920975 0.04593737945414259 0  1.25 0 0  1.36108673858246 0 0  1.36108673858246 0.02281345039300389 0  1.369721686332521 0.06761581364194322 0  1.386679492322819 0.1099743652145785 0  1.411347257261731 0.1483581566929452 0  1.442833423853132 0.181379897845022 0  1.48 0.2078460969082653 0  1.521503688803819 0.2268001964915204 0  1.565844438814412 0.2375571460514239 0  1.611419659797698 0.2397281614039219 0  1.656582144522263 0.23323477639765 0  1.699699603120453 0.2183116788850844 0  1.739213658297088 0.1954982284920806 0  1.765497292517293 0.1727233297951148 0  1.79 0.1905255888325765 0  1.832016261237511 0.2092324335849338 0  1.877003738081116 0.2187948169810202 0  1.922996261918884 0.2187948169810201 0  1.967983738762488 0.2092324335849338 0  2.01 0.1905255888325765 0  2.047208733398949 0.1634918616050267 0  2.077983738762488 0.1293127555043441 0  2.087980221556173 0.1119983394086949 0  2.111347257261731 0.1483581566929452 0  2.142833423853131 0.181379897845022 0  2.18 0.2078460969082653 0  2.221503688803819 0.2268001964915204 0  2.265844438814411 0.2375571460514239 0  2.311419659797698 0.2397281614039219 0  2.356582144522263 0.23323477639765 0  2.399699603120453 0.2183116788850844 0  2.439213658297088 0.1954982284920806 0  2.457172785224357 0.179936556425434 0  2.459215624014038 0.1818784194956707 0  2.498709345141744 0.2064950441012706 0  2.542349917580494 0.222657737339227 0  2.588350691167096 0.2297047966493422 0  2.634828388826053 0.2273477145954656 0  2.679880208154309 0.2156829903938285 0  2.721661722375202 0.1951881792237927 0  2.758462391387408 0.1667023410626976 0  2.788775591477674 0.1313916894718022 0  2.811360296672653 0.09070184667606328 0  2.825291886488074 0.04629865962039181 0  2.83 0 0  3 0 0  3 1.5 0  0 0.8023345134541607 0  0.4157402467060553 0.1358140942214332 0  3 0.75 0  1.5 1.5 0  0 0.4665179965989431 0  3 0.375 0  0 0.2986097381713344 0  0 0.21465560895753 0  0 0.1726785443506278 0  0 0.1516900120471767 0  2.25 1.5 0  0.75 1.5 0  1.169989811679434 0.9093651732355621 0  1.875 0.9142758100523694 0  0.5779365036100435 0.9330077223331824 0  2.43246936225428 0.7976868957014953 0  3 1.125 0  2.625 1.5 0  0.375 1.5 0  0 1.15116725672708 0  1.449253057879235 0.6213873587688492 0  0.7697361971202799 0.5943793911944208 0  0.3630076616442724 0.6080350564914153 0  2.069570984533324 0.5812833454367354 0  1.875 1.5 0  1.125 1.5 0  2.4375 1.173854331507092 0  0.8831005780031504 1.150004411874495 0  1.52207987625039 0.9714054497350916 0  2.0625 1.207137905026185 0  1.107793318688589 0.5766433232347881 0  1.3125 1.2274095306559 0  2.729985961523573 0.9375 0  2.711750443384031 0.5625 0  1.6875 1.243073622519403 0  1.760894209596057 0.6242614373612321 0  0.2643049832376852 0.9767508850906206 0  0.4566194854768236 1.209399638766609 0  2.728217267602858 1.228217267602858 0  2.374499195658668 0.518153287180279 0  2.169650674143702 0.9320836008992801 0  0.8550719231757007 0.8663457099410541 0  1.303567858855371 0.4078893824383345 0  0.2133194436665546 1.297827371069245 0  0.5308017499037517 0.4517023193912283 0  1.083077097725883 1.270382833575872 0  0.6830238102386342 1.274223132985906 0  2.250983943328481 0.6895458766515071 0  1.81089184968521 0.4192208869708923 0  1.679274712803154 0.8238291020339636 0  1.5785148524717 0.4510287526682343 0  0 0.6344262550265519 0  0.2138866804674432 0.765685327335986 0  0.5683532856219899 0.6602211278972628 0  0.9375 1.5 0  0.93201471049342 0.4568525359126817 0  1.262687644113192 0.7198627504483751 0  0.4154000952342595 0.8069446327163143 0  0.2139559556345817 0.4540330649264536 0  2.06977986811652 0.3813318272583126 0  0.7200651071201811 0.4061566188086219 0  1.932157822851692 0.7243325602448901 0  0.9441947922338874 0.689010158618046 0  3 1.3125 0  2.8125 1.5 0  0.5625 1.5 0  1.865575888969794 1.126762336039809 0  1.691368628814911 1.054521333692312 0  2.243682835689564 1.11932177110543 0  2.294933652681559 1.30886281903233 0  2.4375 1.5 0  2.385653526545621 0.9864303388879195 0  2.560603055863368 1.320052196970997 0  2.605098352881707 1.08210421072607 0  2.797310903081369 0.7462827406561878 0  1.497248537655819 1.30111187331848 0  1.6875 1.5 0  3 0.5625 0  3 0.9375 0  1.3125 1.5 0  2.0625 1.5 0  3 0.1875 0  0.1875 1.5 0  0.9978323986844071 0.9954535003819682 0  0.7455388243606953 1.020382929522352 0  1.904625246064701 1.312514164033404 0  1.15622562020362 1.097022204090454 0  1.332774827327096 1.015638362851981 0  2.617489052932561 0.7904306825848915 0  2.798834931624827 0.3810601956207291 0  2.518702939674024 0.6340258449062608 0  1.42862153170688 0.8082655083169574 0  2.016051725629557 1.02698392558818 0  2.557580898838836 0.4303899543284488 0  0.9143579924460792 1.324371521638632 0  0.6907201107072946 0.792483910827579 0  0 1.32558362836354 0  0 0.9767508850906206 0  0.6046140448732628 1.120294499938289 0  1.129353874055204 0.4037183319394277 0  2.240578803971554 0.4086758810341738 0  1.544887400155686 1.138911442832316 0  2.828734594747712 1.083464790593587 0  0.401358428169992 0.3487630281226344 0  0.1737226743516005 1.126953194380642 0  1.219293394173851 1.36370476532795 0  2.095593203128485 0.7438044944874065 0  1.099947866649755 0.7404984974094087 0  0.4225987016856009 0.9654760294046846 0  1.265404984472296 0.5615537191035901 0  1.908099381276504 0.55154028811489 0  1.605233217264331 0.6055204891939014 0  0.2070403235706232 0.6098576665994301 0  0.46875 1.369568887475175 0  2.529999076220762 0.9220559311443081 0  0.3296306516835505 1.118561581461605 0  2.136891098712708 1.353568952513092 0  0.1250262355603041 0.8895426992723907 0  2.286468869522623 0.8363516131379349 0  2.03024950667879 0.8782110935537075 0  2.71875 1.380113023166798 0  2.851157149000174 1.312122703709591 0  2.855875221692015 0.6072101925796368 0  1.766081959310164 1.371536811259701 0  2.417227117459742 0.3724437385102629 0  1.365276810157265 1.363519047380362 0  1.451310499971155 0.3640091006357036 0  2.211012611580202 0.5503989260541815 0  1.306789156675977 0.2570819477057019 0  2.872418607762505 0.256220469598872 0  2.896902016958361 0.84375 0  0.6487095286926469 0.5256523827174592 0  1.021477811485347 1.13286821063065 0  1.622350554793597 1.371881362989231 0  1.297557547403682 0.854343314165958 0  0.5529398034156436 0.7974238691464364 0  1.000783388185185 0.848708117631217 0  0.8152141294141361 0.735251676415229 0  2.383386472338196 0.654760318649699 0  1.031024064601143 1.39833771698851 0  1.812756223744312 0.7919737740986065 0  2.902150447032281 0.46875 0  1.558478314279628 0.7430881247578319 0  2.428095049619715 1.306700780290589 0  0.3309906154406318 1.369459454266083 0  0.117457385934373 0.361895434578648 0  0.4016309285334721 0.4812757168525422 0  1.933925005895449 0.3564723397117748 0  0.7479761182598068 1.155601287121883 0  0.09711831342126455 1.23837544254531 0  1.384025258268523 0.5094422387329146 0  2.188092881729461 1.235445092789212 0  0.116614462422195 1.388212202394539 0  0.5993432477835932 1.374610260003488 0  0.8731519049868882 1.022757560732678 0  0.1109021857268646 0.5275252102504697 0  1.703820060431276 0.5017282682884084 0  0.1118224159219883 0.6921053365242938 0  0.3267069786561488 1.244030051070764 0  2.878127312164905 0.9679608000003684 0  1.408346090782441 1.129729637108486 0  0.8047358880839842 0.3153623688883521 0  2.6405066654848 0.6664933064830099 0  0.4805702216488833 1.081724858267193 0  2.668084598222495 0.3562155878484895 0  2.138121375887776 1.052804865904559 0  1.96875 1.5 0  0.4891907154726056 0.5668366043293971 0  0.1473863332166031 1.0086557402922 0  2.558860649578938 1.196592162044302 0  1.717555244640741 0.3396535732296396 0  0.84375 1.5 0  0.7839942032523698 1.367093097528149 0  3 1.40625 0  2.484124862262918 1.060073596740424 0  3 1.21875 0  2.34375 1.5 0  0.8196209764267471 1.251369088398821 0  2.023202270335131 1.319214170177879 0  0.5721208504581607 1.233781127425821 0  1.984735816620384 0.462442873488178 0  0.6955333931194808 0.9118686683832042 0  1.19123464962554 1.213906677421382 0  0.8929803638185398 0.5752987850534633 0  1.566736823664244 0.8614646887466211 0  1.808684073906441 1.017786844668201 0  1.719105195888173 0.9374041347540488 0  1.671476674178274 0.70476362875428 0  1.218260709491531 0.330629071498573 0  2.839021519587611 1.19788439058923 0  0.5170070740021471 0.3361933937254621 0  1.393527188254162 0.91788143976
[...]
<PointData  Tensors="f_492"> 
<DataArray  type="Float64"  Name="f_492"  NumberOfComponents="9" format="ascii">-9.3643090277027596e+00 2.0096054658644342e+00 0.0000000000000000e+00 2.0096054658644342e+00 -1.6516405774239985e+01 0.0000000000000000e+00 0.0000000000000000e+00 0.0000000000000000e+00 0.0000000000000000e+00  2.8488103184678000e+01 -8.9147402348059057e-01 0.0000000000000000e+00 -8.9147402348059057e-01 2.7218938383764399e+01 0.0000000000000000e+00 0.0000000000000000e+00 0.0000000000000000e+00 0.0000000000000000e+00  2.8768031261509009e+01 2.0565274874873783e-02 0.0000000000000000e+00 2.0565274874873783e-02 2.4351916736973685e+01 0.0000000000000000e+00 0.0000000000000000e+00 0.0000000000000000e+00 0.0000000000000000e+00  4.1789084964595489e+01 -1.0814993685454223e+01 0.0000000000000000e+00 -1.0814993685454223e+01 8.1545705470134546e+00 0.0000000000000000e+00 0.0000000000000000e+00 0.0000000000000000e+00 0.0000000000000000e+00  6.5949387770155454e+01 -2.5315907366200516e+01 0.0000000000000000e+00 -2.5315907366200516e+01 -1.3590900550294270e+01 0.0000000000000000e+00 0.0000000000000000e+00 0.0000000000000000e+00 0.0000000000000000e+00  5.6203939180347433e+01 -2.5392270020361128e+01 0.0000000000000000e+00 -2.5392270020361128e+01 -1.5323584592193281e+01 0.0000000000000000e+00 0.0000000000000000e+00 0.0000000000000000e+00 0.0000000000000000e+00  9.3527548273963692e+00 1.0234367768987605e+01 0.0000000000000000e+00 1.0234367768987605e+01 2.2039919589088083e+01 0.0000000000000000e+00 0.0000000000000000e+00 0.0000000000000000e+00 0.0000000000000000e+00  2.5252843676405838e+01 6.2751823629246978e+01 0.0000000000000000e+00 6.2751823629246978e+01 1.6604297289331988e+01 0.0000000000000000e+00 0.0000000000000000e+00 0.0000000000000000e+00 0.0000000000000000e+00  3.4009605674639701e+01 3.2064968285170757e+01 0.0000000000000000e+00 3.2064968285170757e+01 1.3558146631690590e+01 0.0000000000000000e+00 0.0000000000000000e+00 0.0000000000000000e+00 0.0000000000000000e+00  -9.0536755448225978e+00 -1.2742288992516468e+00 0.0000000000000000e+00 -1.2742288992516468e+00 5.7102215872505901e+01 0.0000000000000000e+00 0.0000000000000000e+00 0.0000000000000000e+00 0.0000000000000000e+00  -3.0073882125406310e+01 -9.0228905709221898e+00 0.0000000000000000e+00 -9.0228905709221898e+00 7.3625429601543317e+01 0.0000000000000000e+00 0.0000000000000000e+00 0.0000000000000000e+00 0.0000000000000000e+00  -2.8561457147320770e+01 -6.6490103328544992e+00 0.0000000000000000e+00 -6.6490103328544992e+00 6.9185452056583600e+01 0.0000000000000000e+00 0.0000000000000000e+00 0.0000000000000000e+00 0.0000000000000000e+00  2.7979665781429695e+01 5.0758992097163684e+00 0.0000000000000000e+00 5.0758992097163684e+00 2.8323979059682806e+01 0.0000000000000000e+00 0.0000000000000000e+00 0.0000000000000000e+00 0.0000000000000000e+00  2.6983813623754006e+01 -2.8208804681416058e+00 0.0000000000000000e+00 -2.8208804681416058e+00 2.1922429043455651e+01 0.0000000000000000e+00 0.0000000000000000e+00 0.0000000000000000e+00 0.0000000000000000e+00  4.5752028913856201e+01 -1.5206246412017124e+00 0.0000000000000000e+00 -1.5206246412017124e+00 -2.7870023238480237e+00 0.0000000000000000e+00 0.0000000000000000e+00 0.0000000000000000e+00 0.0000000000000000e+00  4.1264533133069008e+01 -6.9202193356337416e+00 0.0000000000000000e+00 -6.9202193356337416e+00 3.2203729223778249e-01 0.0000000000000000e+00 0.0000000000000000e+00 0.0000000000000000e+00 0.0000000000000000e+00  2.3599196935784166e+00 2.4428620760850926e+01 0.0000000000000000e+00 2.4428620760850926e+01 4.1850591394947521e+01 0.0000000000000000e+00 0.0000000000000000e+00 0.0000000000000000e+00 0.0000000000000000e+00  4.2607309843524686e+00 4.8302698648316152e+01 0.0000000000000000e+00 4.8302698648316152e+01 5.0898499611542391e+01 0.0000000000000000e+00 0.0000000000000000e+00 0.0000000000000000e+00 0.0000000000000000e+00  1.4505008531890731e+01 1.6922132558833990e+01 0.0000000000000000e+00 1.6922132558833990e+01 4.0165000851352971e+01 0.0000000000000000e+00 0.0000000000000000e+00 0.0000000000000000e+00 0.0000000000000000e+00  1.2547431761832829e+01 -4.0732015709889502e+01 0.0000000000000000e+00 -4.0732015709889502e+01 4.0322942094295470e+01 0.0000000000000000e+00 0.0000000000000000e+00 0.0000000000000000e+00 0.0000000000000000e+00  -1.2775553422605293e+01 -3.1438062549365469e+01 0.0000000000000000e+00 -3.1438062549365469e+01 4.7927196267384893e+01 0.0000000000000000e+00 0.0000000000000000e+00 0.0000000000000000e+00 0.0000000000000000e+00  2.6514975510188332e+01 -8.5613968872705097e+00 0.0000000000000000e+00 -8.5613968872705097e+00 1.7975509464017613e+01 0.0000000000000000e+00 0.0000000000000000e+00 0.0000000000000000e+00 0.0000000000000000e+00  4.9753476456315582e+01 -1.6457059689932674e-01 0.0000000000000000e+00 -1.6457059689932674e-01 -6.2965366766853155e+00 0.0000000000000000e+00 0.0000000000000000e+00 0.0000000000000000e+00 0.0000000000000000e+00  2.1249533809735691e+01 1.6021386520074721e+00 0.0000000000000000e+00 1.6021386520074721e+00 2.3307739294300653e+01 0.0000000000000000e+00 0.0000000000000000e+00 0.0000000000000000e+00 0.0000000000000000e+00  -2.9164823234500606e+01 2.7569442858225117e+00 0.0000000000000000e+00 2.7569442858225117e+00 7.2919043471488123e+01 0.0000000000000000e+00 0.0000000000000000e+00 0.0000000000000000e+00 0.0000000000000000e+00  -4.0875450423962256e+01 1.5038032652553822e+01 0.0000000000000000e+00 1.5038032652553822e+01 8.2333588855029404e+01 0.0000000000000000e+00 0.0000000000000000e+00 0.0000000000000000e+00 0.0000000000000000e+00  -1.2836768133402472e+01 1.5412254960792705e+01 0.0000000000000000e+00 1.5412254960792705e+01 5.8980602864636801e+01 0.0000000000000000e+00 0.0000000000000000e+00 0.0000000000000000e+00 0.0000000000000000e+00  9.4037270596877356e+00 -1.0737021428256417e+01 0.0000000000000000e+00 -1.0737021428256417e+01 2.7561153488193501e+01 0.0000000000000000e+00 0.0000000000000000e+00 0.0000000000000000e+00 0.0000000000000000e+00  2.7624332853231984e+01 -4.0229266287377875e+01 0.0000000000000000e+00 -4.0229266287377875e+01 1.6446494308452102e+01 0.0000000000000000e+00 0.0000000000000000e+00 0.0000000000000000e+00 0.0000000000000000e+00  2.8336197426691438e+01 -1.6823254848681920e+01 0.0000000000000000e+00 -1.6823254848681920e+01 1.0493044642813320e+01 0.0000000000000000e+00 0.0000000000000000e+00 0.0000000000000000e+00 0.0000000000000000e+00  4.5124850355854825e+01 2.5461328620544489e+01 0.0000000000000000e+00 2.5461328620544489e+01 -4.0044766541939882e+00 0.0000000000000000e+00 0.0000000000000000e+00 0.0000000000000000e+00 0.0000000000000000e+00  6.4952584792179948e+01 3.2383447245685630e+01 0.0000000000000000e+00 3.2383447245685630e+01 -2.6550563024162770e+01 0.0000000000000000e+00 0.0000000000000000e+00 0.0000000000000000e+00 0.0000000000000000e+00  2.1743156270181895e+01 1.6793323146714993e+01 0.0000000000000000e+00 1.6793323146714993e+01 1.6868053067617769e+01 0.0000000000000000e+00 0.0000000000000000e+00 0.0000000000000000e+00 0.0000000000000000e+00  -2.1720991887313041e+01 1.3665116965048430e+01 0.0000000000000000e+00 1.3665116965048430e+01 6.0028287931852127e+01 0.0000000000000000e+00 0.0000000000000000e+00 0.0000000000000000e+00 0.0000000000000000e+00  -3.9645177169853639e+01 3.6302055347220794e+01 0.0000000000000000e+00 3.6302055347220794e+01 8.2748815869692251e+01 0.0000000000000000e+00 0.0000000000000000e+00 0.0000000000000000e+00 0.0000000000000000e+00  -3.2659592603269807e+01 5.1514041224431232e+01 0.0000000000000000e+00 5.1514041224431232e+01 7.6013892345236513e+01 0.0000000000000000e+00 0.0000000000000000e+00 0.0000000000000000e+00 0.0000000000000000e+00  7.1615002686300455e-01 4.1312586812961527e+01 0.0000000000000000e+00 4.1312586812961527e+01 4.7606551615559162e+01 0.0000000000000000e+00 0.0000000000000000e+00 0.0000000000000000e+00 0.0000000000000000e+00  6.7968745864934412e+00 9.3383604622944105e+00 0.0000000000000000e+00 9.3383604622944105e+00 4.6323902566988473e+01 0.0000000000000000e+00 0.0000000000000000e+00 0.0000000000000000e+00 0.0000000000000000e+00  2.5735154503474178e+01 -2.2064029017601041e+00 0.0000000000000000e+00 -2.2064029017601041e+00 2.1803797606350130e+01 0.0000000000000000e+00 0.0000000000000000e+00 0.0000000000000000e+00 0.0000000000000000e+00  3.2878684282659783e+01 1.2997285223078881e+01 0.0000000000000000e+00 1.2997285223078881e+01 1.7267912991910570e+01 0.0000000000000000e+00 0.0000000000000000e+00 0.0000000000000000e+00 0.0000000000000000e+00  4.2371046417579848e+01 2.4649470632655667e+01 0.0000000000000000e+00 2.4649470632655667e+01 1.0363321438901285e+00 0.0000000000000000e+00 0.0000000000000000e+00 0.0000000000000000e+00 0.0000000000000000e+00  3.3072371327149007e+01 1.6554652948415669e+01 0.0000000000000000e+00 1.6554652948415669e+01 7.5216768349798757e+00 0.0000000000000000e+00 0.0000000000000000e+00 0.0000000000000000e+00 0.0000000000000000e+00  3.3029478624729398e+00 4.9303263981237073e+00 0.0000000000000000e+00 4.9303263981237073e+00 3.7889588208413393e+01 0.0000000000000000e+00 0.0000000000000000e+00 0.0000000000000000e+00 0.0000000000000000e+00  -2.3111763796690514e+01 9.6645101676095972e+00 0.0000000000000000e+00 9.6645101676095972e+00 7.0213025703286377e+01 0.0000000000000000e+00 0.0000000000000000e+00 0.0000000000000000e+00 0.0000000000000000e+00  -2.1608746294523772e+01 6.7386386420721154e+00 0.0000000000000000e+00 6.7386386420721154e+00 5.5382180402671942e+01 0.0000000000000000e+00 0.0000000000000000e+00 0.0000000000000000e+00 0.0000000000000000e+00  -2.3624096737753568e+00 -1.4039722998918101e+01 0.0000000000000000e+00 -1.4039722998918101e+01 3.6758819877811277e+01 0.0000000000000000e+00 0.0000000000000000e+00 0.0000000000000000e+00 0.0000000000000000e+00  2.6970267370778394e+01 -4.4920071566597663e+01 0.0000000000000000e+00 -4.4920071566597663e+01 4.5394424035158378e+00 0.0000000000000000e+00 0.0000000000000000e+00 0.0000000000000000e+00 0.0000000000000000e+00  2.5416632805729442e+01 -3.2873355352560729e+01 0.0000000000000000e+00 -3.2873355352560729e+01 7.4479806197500968e+00 0.0000000000000000e+00 0.0000000000000000e+00 0.0000000000000000e+00 0.0000000000000000e+00  4.9976330666130906e+01 1.7620702363176903e+01 0.0000000000000000e+00 1.7620702363176903e+01 -1.2528380423566354e+01 0.0000000000000000e+00 0.0000000000000000e+00 0.0000000000000000e+00 0.0000000000000000e+00  4.9664163416701008e+01 2.5205266692742988e+01 0.0000000000000000e+00 2.5205266692742988e+01 -1.7664496818201048e+01 0.0000000000000000e+00 0.0000000000000000e+00 0.0000000000000000e+00 0.0000000000000000e+00  6.2332833522142650e+01 1.9712135911013601e+01 0.0000000000000000e+00 1.9712135911013601e+01 -1.7047884477218112e+01 0.0000000000000000e+00 0.0000000000000000e+00 0.0000000000000000e+00 0.0000000000000000e+00  2.3599652268224947e+01 1.6746868986109643e+01 0.0000000000000000e+00 1.6746868986109643e+01 1.1867242072539709e+01 0.0000000000000000e+00 0.0000000000000000e+00 0.0000000000000000e+00 0.0000000000000000e+00  -2.1383855762169224e-01 7.6136648743350923e+00 0.0000000000000000e+00 7.6136648743350923e+00 3.5970752837446710e+01 0.0000000000000000e+00 0.0000000000000000e+00 0.0000000000000000e+00 0.0000000000000000e+00  1.3610731841772637e+01 -2.2815670306347908e+01 0.0000000000000000e+00 -2.2815670306347908e+01 2.2162719512643420e+01 0.0000000000000000e+00 0.0000000000000000e+00 0.0000000000000000e+00 0.0000000000000000e+00  3.5173965664631993e+01 -4.7154246629546968e+01 0.0000000000000000e+00 -4.7154246629546968e+01 1.4443071058609049e+00 0.0000000000000000e+00 0.0000000000000000e+00 0.0000000000000000e+00 0.0000000000000000e+00  2.5993463821762742e+01 -1.7388427098898475e+01 0.0000000000000000e+00 -1.7388427098898475e+01 6.5675727726809994e+00 0.0000000000000000e+00 0.0000000000000000e+00 0.0000000000000000e+00 0.0000000000000000e+00  4.3983338541855332e+01 2.2080060253179852e+01 0.0000000000000000e+00 2.2080060253179852e+01 -5.9846718200103295e+00 0.0000000000000000e+00 0.0000000000000000e+00 0.0000000000000000e+00 0.0000000000000000e+00  7.3884298650736795e+01 3.7588383427349783e+01 0.0000000000000000e+00 3.7588383427349783e+01 -4.3584490749303413e+01 0.0000000000000000e+00 0.0000000000000000e+00 0.0000000000000000e+00 0.0000000000000000e+00  4.9763917610375749e+01 6.5228025870589539e+00 0.0000000000000000e+00 6.5228025870589539e+00 -1.1097507680314799e+01 0.0000000000000000e+00 0.0000000000000000e+00 0.0000000000000000e+00 0.0000000000000000e+00  2.7870615625960209e+01 6.3037026557770321e+00 0.0000000000000000e+00 6.3037026557770321e+00 1.2082781425710451e+01 0.0000000000000000e+00 0.0000000000000000e+00 0.0000000000000000e+00 0.0000000000000000e+00  2.2150619209181052e+01 5.1200612335220497e-01 0.0000000000000000e+00 5.1200612335220497e-01 1.8281120715400288e+01 0.0000000000000000e+00 0.0000000000000000e+00 0.0000000000000000e+00 0.0000000000000000e+00  1.3798383168336015e+01 -2.2322427222547727e+00 0.0000000000000000e+00 -2.2322427222547727e+00 2.2405089047046339e+01 0.0000000000000000e+00 0.0000000000000000e+00 0.0000000000000000e+00 0.0000000000000000e+00  3.9060696266043699e+01 -1.5289384993378372e+01 0.0000000000000000e+00 -1.5289384993378372e+01 -2.9920870963455530e+00 0.0000000000000000e+00 0.0000000000000000e+00 0.0000000000000000e+00 0.0000000000000000e+00  6.2336876856434571e+01 -2.7182576986425698e+01 0.0000000000000000e+00 -2.7182576986425698e+01 -2.6566964566684522e+01 0.0000000000000000e+00 0.0000000000000000e+00 0.0000000000000000e+00 0.0000000000000000e+00  5.0205369170477560e+01 -3.8295829667678547e+01 0.0000000000000000e+00 -3.8295829667678547e+01 -2.3328218778360444e+01 0.0000000000000000e+00 0.0000000000000000e+00 0.0000000000000000e+00 0.0000000000000000e+00  2.8337085044857936e+01 7.1718752107823933e+00 0.0000000000000000e+00 7.1718752107823933e+00 -1.1388881872916212e+00 0.0000000000000000e+00 0.0000000000000000e+00 0.0000000000000000e+00 0.0000000000000000e+00  1.8388226455315426e+01 3.4350103015273106e+01 0.0000000000000000e+00 3.4350103015273106e+01 1.6348178646300187e+01 0.0000000000000000e+00 0.0000000000000000e+00 0.0000000000000000e+00 0.0000000000000000e+00  1.6795093246702969e-01 1.3450709684542486e+01 0.0000000000000000e+00 1.3450709684542486e+01 2.0951648953576122e+01 0.0000000000000000e+00 0.0000000000000000e+00 0.0000000000000000e+00 0.0000000000000000e+00  -2.2256286921121134e+01 -2.2557690670736989e+01 0.0000000000000000e+00 -2.2557690670736989e+01 4.3297673081005946e+01 0.0000000000000000e+00 0.0000000000000000e+00 0.0000000000000000e+00 0.0000000000000000e+00  -3.3441788750598221e+01 -1.9140871329591782e+01 0.0000000000000000e+00 -1.9140871329591782e+01 5.3437863152251929e+01 0.0000000000000000e+00 0.0000000000000000e+00 0.0000000000000000e+00 0.0000000000000000e+00  7.5144405305695647e+00 -7.4861028911412602e+00 0.0000000000000000e+00 -7.4861028911412602e+00 1.3765577897947455e+01 0.0000000000000000e+00 0.0000000000000000e+00 0.0000000000000000e+00 0.0000000000000000e+00  2.9345343685427434e+01 -1.4454301116683482e+01 0.0000000000000000e+00 -1.4454301116683482e+01 -1.2995894088629221e+00 0.0000000000000000e+00 0.0000000000000000e+00 0.0000000000000000e+00 0.0000000000000000e+00  5.3012008931120626e+01 -4.1420661085960333e+01 0.0000000000000000e+00 -4.1420661085960333e+01 -3.1803804341665000e+01 0.0000000000000000e+00 0.0000000000000000e+00 0.0000000000000000e+00 0.0000000000000000e+00  4.2075525221892413e+01 -4.3460195468847793e+01 0.0000000000000000e+00 -4.3460195468847793e+01 -2.5915861978259077e+01 0.0000000000000000e+00 0.0000000000000000e+00 0.0000000000000000e+00 0.0000000000000000e+00  2.0372916124752148e+01 -5.6341508174794708e+00 0.0000000000000000e+00 -5.6341508174794708e+00 -3.6282954637245518e-01 0.0000000000000000e+00 0.0000000000000000e+00 0.0000000000000000e+00 0.0000000000000000e+00  2.3171264592071394e+00 -1.1729958802960505e+00 0.0000000000000000e+00 -1.1729958802960505e+00 1.9551928578407178e+01 0.0000000000000000e+00 0.0000000000000000e+00 0.0000000000000000e+00 0.0000000000000000e+00  -4.5447427617723015e+01 -3.1510061045730861e+01 0.0000000000000000e+00 -3.1510061045730861e+01 6.7094797376071583e+01 0.0000000000000000e+00 0.0000000000000000e+00 0.0000000000000000e+00 0.0000000000000000e+00  -1.1225053871492130e+02 -4.3410681779484307e+01 0.0000000000000000e+00 -4.3410681779484307e+01 1.3513252514096575e+02 0.0000000000000000e+00 0.0000000000000000e+00 0.0000000000000000e+00 0.0000000000000000e+00  -1.4757088733728631e+02 -1.1148043150193683e+01 0.0000000000000000e+00 -1.1148043150193683e+01 1.3515257252839439e+02 0.0000000000000000e+00 0.0000000000000000e+00 0.0000000000000000e+00 0.0000000000000000e+00  -7.8915406664032034e+01 3.1451002691838340e+01 0.0000000000000000e+00 3.1451002691838340e+01 7.2600284561117661e+01 0.0000000000000000e+00 0.0000000000000000e+00 0.0000000000000000e+00 0.0000000000000000e+00  -2.5298230821922832e+01 2.4481690177365426e+01 0.0000000000000000e+00 2.4481690177365426e+01 3.1410895604547548e+01 0.0000000000000000e+00 0.0000000000000000e+00 0.0000000000000000e+00 0.0000000000000000e+00  -5.2837008890245682e+00 4.0179775366568169e+00 0.0000000000000000e+00 4.0179775366568169e+00 9.7449138717329191e+00 0.0000000000000000e+00 0.0000000000000000e+00 0.0000000000000000e+00 0.0000000000000000e+00  5.6823150237214968e+00 1.4354530927613243e+00 0.0000000000000000e+00 1.4354530927613243e+00 2.7894652788306615e+00 0.0000000000000000e+00 0.0000000000000000e+00 0.0000000000000000e+00 0.0000000000000000e+00  5.6221345876440452e+01 -9.7034526292890362e+01 0.0000000000000000e+00 -9.7034526292890362e+01 9.2777302447962143e+01 0.0000000000000000e+00 0.0000000000000000e+00 0.0000000000000000e+00 0.0000000000000000e+00  1.9995564626767492e+02 1.1602703027645133e+02 0.0000000000000000e+00 1.1602703027645133e+02 3.5138600164829647e+01 0.0000000000000000e+00 0.0000000000000000e+00 0.0000000000000000e+00 0.0000000000000000e+00  5.3559678441164920e+00 4.8695868067830141e+01 0.0000000000000000e+00 4.8695868067830141e+01 1.6591561959554870e+01 0.0000000000000000e+00 0.0000000000000000e+00 0.0000000000000000e+00 0.0000000000000000e+00  2.8750143718873236e+01 -7.0699006266654854e+00 0.0000000000000000e+00 -7.0699006266654854e+00 2.7836173259854640e+01 0.0000000000000000e+00 0.0000000000000000e+00 0.0000000000000000e+00 0.0000000000000000e+00  1.0667463523604514e+01 -1.3077776764988695e+02 0.0000000000000000e+00 -1.3077776764988695e+02 -7.6968342287422811e+00 0.0000000000000000e+00 0.0000000000000000e+00 0.0000000000000000e+00 0.0000000000000000e+00  -6.6876321946432302e+00 1.4116422387279590e+00 0.0000000000000000e+00 1.4116422387279590e+00 -2.0522926756782503e+01 0.0000000000000000e+00 0.0000000000000000e+00 0.0000000000000000e+00 0.0000000000000000e+00  1.7812253934010478e+01 5.0165805738875562e+01 0.0000000000000000e+00 5.0165805738875562e+01 1.6567333150456658e+01 0.0000000000000000e+00 0.0000000000000000e+00 0.0000000000000000e+00 0.0000000000000000e+00  8.5910161619643233e+01 -1.1006736805571022e+02 0.0000000000000000e+00 -1.1006736805571022e+02 1.5187150935933560e+00 0.0000000000000000e+00 0.0000000000000000e+00 0.0000000000000000e+00 0.0000000000000000e+00  2.6083690737203373e+01 4.7414018452021303e+01 0.0000000000000000e+00 4.7414018452021303e+01 1.5418371616369207e+01 0.0000000000000000e+00 0.0000000000000000e+00 0.0000000000000000e+00 0.0000000000000000e+00  2.5403857803206012e+01 2.6377095493098132e+01 0.0000000000000000e+00 2.6377095493098132e+01 3.0406841787617132e+01 0.0000000000000000e+00 0.0000000000000000e+00 0.0000000000000000e+00 0.0000000000000000e+00  1.6397285492611246e+01 5.8253984460138419e-01 0.0000000000000000e+00 5.8253984460138419e-01 3.2830193087340220e+01 0.0000000000000000e+00 0.0000000000000000e+00 0.0000000000000000e+00 0.0000000000000000e+00  3.2725056594126109e+01 2.0688312973389267e+00 0.0000000000000000e+00 2.0688312973389267e+00 2.8206084505446626e+01 0.0000000000000000e+00 0.0000000000000000e+00 0.0000000000000000e+00 0.0000000000000000e+0