<?xml version="1.0"?>
<VTKFile type="UnstructuredGrid"  version="0.1"  >
<UnstructuredGrid>
<Piece  NumberOfPoints="4835" NumberOfCells="9296">
<Points>
<DataArray  type="Float64"  NumberOfComponents="3"  format="ascii">0 1.5 0  -0 0.1307014797437256 0  0.01134725726173103 0.1483581566929452 0  0.04283342385313163 0.181379897845022 0  0.08000000000000007 0.2078460969082653 0  0.1215036888038188 0.2268001964915204 0  0.1658444388144116 0.2375571460514239 0  0.2114196597976982 0.2397281614039219 0  0.2565821445222626 0.23323477639765 0  0.2996996031204527 0.2183116788850844 0  0.3392136582970876 0.1954982284920806 0  0.3736961691452169 0.1656189627557069 0  0.4019008478794835 0.1297537961893434 0  0.4059948616314525 0.1218125174167552 0  0.4254856317806581 0.1498156710261111 0  0.4592156240140376 0.1818784194956707 0  0.498709345141744 0.2064950441012706 0  0.5423499175804942 0.222657737339227 0  0.588350691167096 0.2297047966493422 0  0.6348283888260526 0.2273477145954656 0  0.6798802081543086 0.2156829903938285 0  0.7216617223752013 0.1951881792237927 0  0.7584623913874079 0.1667023410626976 0  0.7879811633353602 0.1323170874919288 0  0.8152477706948351 0.1684239109116393 0  0.849341340905186 0.1995043068200599 0  0.8885654110558655 0.2237908228387656 0  0.9315842524819793 0.2404564107932048 0  0.9769329101341745 0.2489335440737586 0  1.023067089865825 0.2489335440737586 0  1.068415747518021 0.2404564107932048 0  1.111434588944135 0.2237908228387656 0  1.150658659094814 0.1995043068200599 0  1.184752229305165 0.1684239109116393 0  1.212554283932403 0.1316080407193389 0  1.233118057351089 0.09031041654678823 0  1.245743274920975 0.04593737945414259 0  1.25 0 0  1.36108673858246 0 0  1.36108673858246 0.02281345039300389 0  1.369721686332521 0.06761581364194322 0  1.386679492322819 0.1099743652145785 0  1.411347257261731 0.1483581566929452 0  1.442833423853132 0.181379897845022 0  1.48 0.2078460969082653 0  1.521503688803819 0.2268001964915204 0  1.565844438814412 0.2375571460514239 0  1.611419659797698 0.2397281614039219 0  1.656582144522263 0.23323477639765 0  1.699699603120453 0.2183116788850844 0  1.739213658297088 0.1954982284920806 0  1.765497292517293 0.1727233297951148 0  1.79 0.1905255888325765 0  1.832016261237511 0.2092324335849338 0  1.877003738081116 0.2187948169810202 0  1.922996261918884 0.2187948169810201 0  1.967983738762488 0.2092324335849338 0  2.01 0.1905255888325765 0  2.047208733398949 0.1634918616050267 0  2.077983738762488 0.1293127555043441 0  2.087980221556173 0.1119983394086949 0  2.111347257261731 0.1483581566929452 0  2.142833423853131 0.181379897845022 0  2.18 0.2078460969082653 0  2.221503688803819 0.2268001964915204 0  2.265844438814411 0.2375571460514239 0  2.311419659797698 0.2397281614039219 0  2.356582144522263 0.23323477639765 0  2.399699603120453 0.2183116788850844 0  2.439213658297088 0.1954982284920806 0  2.457172785224357 0.179936556425434 0  2.459215624014038 0.1818784194956707 0  2.498709345141744 0.2064950441012706 0  2.542349917580494 0.222657737339227 0  2.588350691167096 0.2297047966493422 0  2.634828388826053 0.2273477145954656 0  2.679880208154309 0.2156829903938285 0  2.721661722375202 0.1951881792237927 0  2.758462391387408 0.1667023410626976 0  2.788775591477674 0.1313916894718022 0  2.811360296672653 0.09070184667606328 0  2.825291886488074 0.04629865962039181 0  2.83 0 0  3 0 0  3 1.5 0  0 0.8023345134541607 0  0.4157402467060553 0.1358140942214332 0  3 0.75 0  1.5 1.5 0  0 0.4665179965989431 0  3 0.375 0  0 0.2986097381713344 0  0 0.21465560895753 0  0 0.1726785443506278 0  0 0.1516900120471767 0  2.25 1.5 0  0.75 1.5 0  1.169989811679434 0.9093651732355621 0  1.875 0.9142758100523694 0  0.5779365036100435 0.9330077223331824 0  2.43246936225428 0.7976868957014953 0  3 1.125 0  2.625 1.5 0  0.375 1.5 0  0 1.15116725672708 0  1.449253057879235 0.6213873587688492 0  0.7697361971202799 0.5943793911944208 0  0.3630076616442724 0.6080350564914153 0  2.069570984533324 0.5812833454367354 0  1.875 1.5 0  1.125 1.5 0  2.4375 1.173854331507092 0  0.8831005780031504 1.150004411874495 0  1.52207987625039 0.9714054497350916 0  2.0625 1.207137905026185 0  1.107793318688589 0.5766433232347881 0  1.3125 1.2274095306559 0  2.729985961523573 0.9375 0  2.711750443384031 0.5625 0  1.6875 1.243073622519403 0  1.760894209596057 0.6242614373612321 0  0.2643049832376852 0.9767508850906206 0  0.4566194854768236 1.209399638766609 0  2.728217267602858 1.228217267602858 0  2.374499195658668 0.518153287180279 0  2.169650674143702 0.9320836008992801 0  0.8550719231757007 0.8663457099410541 0  1.303567858855371 0.4078893824383345 0  0.2133194436665546 1.297827371069245 0  0.5308017499037517 0.4517023193912283 0  1.083077097725883 1.270382833575872 0  0.6830238102386342 1.274223132985906 0  2.250983943328481 0.6895458766515071 0  1.81089184968521 0.4192208869708923 0  1.679274712803154 0.8238291020339636 0  1.5785148524717 0.4510287526682343 0  0 0.6344262550265519 0  0.2138866804674432 0.765685327335986 0  0.5683532856219899 0.6602211278972628 0  0.9375 1.5 0  0.93201471049342 0.4568525359126817 0  1.262687644113192 0.7198627504483751 0  0.4154000952342595 0.8069446327163143 0  0.2139559556345817 0.4540330649264536 0  2.06977986811652 0.3813318272583126 0  0.7200651071201811 0.4061566188086219 0  1.932157822851692 0.7243325602448901 0  0.9441947922338874 0.689010158618046 0  3 1.3125 0  2.8125 1.5 0  0.5625 1.5 0  1.865575888969794 1.126762336039809 0  1.691368628814911 1.054521333692312 0  2.243682835689564 1.11932177110543 0  2.294933652681559 1.30886281903233 0  2.4375 1.5 0  2.385653526545621 0.9864303388879195 0  2.560603055863368 1.320052196970997 0  2.605098352881707 1.08210421072607 0  2.797310903081369 0.7462827406561878 0  1.497248537655819 1.30111187331848 0  1.6875 1.5 0  3 0.5625 0  3 0.9375 0  1.3125 1.5 0  2.0625 1.5 0  3 0.1875 0  0.1875 1.5 0  0.9978323986844071 0.9954535003819682 0  0.7455388243606953 1.020382929522352 0  1.904625246064701 1.312514164033404 0  1.15622562020362 1.097022204090454 0  1.332774827327096 1.015638362851981 0  2.617489052932561 0.7904306825848915 0  2.798834931624827 0.3810601956207291 0  2.518702939674024 0.6340258449062608 0  1.42862153170688 0.8082655083169574 0  2.016051725629557 1.02698392558818 0  2.557580898838836 0.4303899543284488 0  0.9143579924460792 1.324371521638632 0  0.6907201107072946 0.792483910827579 0  0 1.32558362836354 0  0 0.9767508850906206 0  0.6046140448732628 1.120294499938289 0  1.129353874055204 0.4037183319394277 0  2.240578803971554 0.4086758810341738 0  1.544887400155686 1.138911442832316 0  2.828734594747712 1.083464790593587 0  0.401358428169992 0.3487630281226344 0  0.1737226743516005 1.126953194380642 0  1.219293394173851 1.36370476532795 0  2.095593203128485 0.7438044944874065 0  1.099947866649755 0.7404984974094087 0  0.4225987016856009 0.9654760294046846 0  1.265404984472296 0.5615537191035901 0  1.908099381276504 0.55154028811489 0  1.605233217264331 0.6055204891939014 0  0.2070403235706232 0.6098576665994301 0  0.46875 1.369568887475175 0  2.529999076220762 0.9220559311443081 0  0.3296306516835505 1.118561581461605 0  2.136891098712708 1.353568952513092 0  0.1250262355603041 0.8895426992723907 0  2.286468869522623 0.8363516131379349 0  2.03024950667879 0.8782110935537075 0  2.71875 1.380113023166798 0  2.851157149000174 1.312122703709591 0  2.855875221692015 0.6072101925796368 0  1.766081959310164 1.371536811259701 0  2.417227117459742 0.3724437385102629 0  1.365276810157265 1.363519047380362 0  1.451310499971155 0.3640091006357036 0  2.211012611580202 0.5503989260541815 0  1.306789156675977 0.2570819477057019 0  2.872418607762505 0.256220469598872 0  2.896902016958361 0.84375 0  0.6487095286926469 0.5256523827174592 0  1.021477811485347 1.13286821063065 0  1.622350554793597 1.371881362989231 0  1.297557547403682 0.854343314165958 0  0.5529398034156436 0.7974238691464364 0  1.000783388185185 0.848708117631217 0  0.8152141294141361 0.735251676415229 0  2.383386472338196 0.654760318649699 0  1.031024064601143 1.39833771698851 0  1.812756223744312 0.7919737740986065 0  2.902150447032281 0.46875 0  1.558478314279628 0.7430881247578319 0  2.428095049619715 1.306700780290589 0  0.3309906154406318 1.369459454266083 0  0.117457385934373 0.361895434578648 0  0.4016309285334721 0.4812757168525422 0  1.933925005895449 0.3564723397117748 0  0.7479761182598068 1.155601287121883 0  0.09711831342126455 1.23837544254531 0  1.384025258268523 0.5094422387329146 0  2.188092881729461 1.235445092789212 0  0.116614462422195 1.388212202394539 0  0.5993432477835932 1.374610260003488 0  0.8731519049868882 1.022757560732678 0  0.1109021857268646 0.5275252102504697 0  1.703820060431276 0.5017282682884084 0  0.1118224159219883 0.6921053365242938 0  0.3267069786561488 1.244030051070764 0  2.878127312164905 0.9679608000003684 0  1.408346090782441 1.129729637108486 0  0.8047358880839842 0.3153623688883521 0  2.6405066654848 0.6664933064830099 0  0.4805702216488833 1.081724858267193 0  2.668084598222495 0.3562155878484895 0  2.138121375887776 1.052804865904559 0  1.96875 1.5 0  0.4891907154726056 0.5668366043293971 0  0.1473863332166031 1.0086557402922 0  2.558860649578938 1.196592162044302 0  1.717555244640741 0.3396535732296396 0  0.84375 1.5 0  0.7839942032523698 1.367093097528149 0  3 1.40625 0  2.484124862262918 1.060073596740424 0  3 1.21875 0  2.34375 1.5 0  0.8196209764267471 1.251369088398821 0  2.023202270335131 1.319214170177879 0  0.5721208504581607 1.233781127425821 0  1.984735816620384 0.462442873488178 0  0.6955333931194808 0.9118686683832042 0  1.19123464962554 1.213906677421382 0  0.8929803638185398 0.5752987850534633 0  1.566736823664244 0.8614646887466211 0  1.808684073906441 1.017786844668201 0  1.719105195888173 0.9374041347540488 0  1.671476674178274 0.70476362875428 0  1.218260709491531 0.330629071498573 0  2.839021519587611 1.19788439058923 0  0.5170070740021471 0.3361933937254621 0  1.393527188254162 0.91788143976
[...]
<PointData  Tensors="f_1214"> 
<DataArray  type="Float64"  Name="f_1214"  NumberOfComponents="9" format="ascii">-2.1720966471388059e+00 -3.0483391889917559e+00 0.0000000000000000e+00 -3.0483391889917559e+00 -1.8428381231168260e+01 0.0000000000000000e+00 0.0000000000000000e+00 0.0000000000000000e+00 0.0000000000000000e+00  2.6561587898343070e+01 -5.9046655818351161e-02 0.0000000000000000e+00 -5.9046655818351161e-02 2.6067536434590199e+01 0.0000000000000000e+00 0.0000000000000000e+00 0.0000000000000000e+00 0.0000000000000000e+00  2.7131323904490397e+01 -5.7624074486814958e-01 0.0000000000000000e+00 -5.7624074486814958e-01 2.0495391966379366e+01 0.0000000000000000e+00 0.0000000000000000e+00 0.0000000000000000e+00 0.0000000000000000e+00  4.7235725878618084e+01 -1.6552648142493396e+01 0.0000000000000000e+00 -1.6552648142493396e+01 -1.4818807203848858e+00 0.0000000000000000e+00 0.0000000000000000e+00 0.0000000000000000e+00 0.0000000000000000e+00  9.4337254840903398e+01 -5.4531062893404055e+01 0.0000000000000000e+00 -5.4531062893404055e+01 -4.3352743398989418e+01 0.0000000000000000e+00 0.0000000000000000e+00 0.0000000000000000e+00 0.0000000000000000e+00  8.9404252643526533e+01 -5.9861728001853095e+01 0.0000000000000000e+00 -5.9861728001853095e+01 -5.3218953316217409e+01 0.0000000000000000e+00 0.0000000000000000e+00 0.0000000000000000e+00 0.0000000000000000e+00  1.6106925315997174e+00 1.6782064721819964e+01 0.0000000000000000e+00 1.6782064721819964e+01 2.4047144580213224e+01 0.0000000000000000e+00 0.0000000000000000e+00 0.0000000000000000e+00 0.0000000000000000e+00  2.9903822515619520e+01 1.2233208566387289e+02 0.0000000000000000e+00 1.2233208566387289e+02 5.8494076023841348e+00 0.0000000000000000e+00 0.0000000000000000e+00 0.0000000000000000e+00 0.0000000000000000e+00  3.1271749521204232e+01 5.3798153614446974e+01 0.0000000000000000e+00 5.3798153614446974e+01 1.3118186982425787e+01 0.0000000000000000e+00 0.0000000000000000e+00 0.0000000000000000e+00 0.0000000000000000e+00  -3.8200478171318089e+01 -6.0774038718273027e-01 0.0000000000000000e+00 -6.0774038718273027e-01 8.9069088310436740e+01 0.0000000000000000e+00 0.0000000000000000e+00 0.0000000000000000e+00 0.0000000000000000e+00  -1.0008413618228268e+02 -1.6445582471379414e+01 0.0000000000000000e+00 -1.6445582471379414e+01 1.3648814559733529e+02 0.0000000000000000e+00 0.0000000000000000e+00 0.0000000000000000e+00 0.0000000000000000e+00  -8.3273063742054120e+01 -1.1753972227134415e+01 0.0000000000000000e+00 -1.1753972227134415e+01 1.2110431564659361e+02 0.0000000000000000e+00 0.0000000000000000e+00 0.0000000000000000e+00 0.0000000000000000e+00  2.9443184347224129e+01 5.5814397476715083e+00 0.0000000000000000e+00 5.5814397476715083e+00 2.8311546756183137e+01 0.0000000000000000e+00 0.0000000000000000e+00 0.0000000000000000e+00 0.0000000000000000e+00  2.7346367557433009e+01 -7.7873786078969465e+00 0.0000000000000000e+00 -7.7873786078969465e+00 2.5698349343781761e+01 0.0000000000000000e+00 0.0000000000000000e+00 0.0000000000000000e+00 0.0000000000000000e+00  5.9725954262709173e+01 -6.9732011907033131e+00 0.0000000000000000e+00 -6.9732011907033131e+00 -1.6259104971606359e+01 0.0000000000000000e+00 0.0000000000000000e+00 0.0000000000000000e+00 0.0000000000000000e+00  6.5108124907164679e+01 -1.5706639467414089e+01 0.0000000000000000e+00 -1.5706639467414089e+01 -2.5377204437492185e+01 0.0000000000000000e+00 0.0000000000000000e+00 0.0000000000000000e+00 0.0000000000000000e+00  -2.4502777033545250e+01 5.0901730169529436e+01 0.0000000000000000e+00 5.0901730169529436e+01 6.6207829598141217e+01 0.0000000000000000e+00 0.0000000000000000e+00 0.0000000000000000e+00 0.0000000000000000e+00  -3.4318044592959765e+01 9.4660905683919012e+01 0.0000000000000000e+00 9.4660905683919012e+01 8.7106697545837534e+01 0.0000000000000000e+00 0.0000000000000000e+00 0.0000000000000000e+00 0.0000000000000000e+00  4.0911106061035838e+00 2.9378228681098857e+01 0.0000000000000000e+00 2.9378228681098857e+01 5.4035152819661697e+01 0.0000000000000000e+00 0.0000000000000000e+00 0.0000000000000000e+00 0.0000000000000000e+00  4.8327118708997689e+00 -7.1807668503617705e+01 0.0000000000000000e+00 -7.1807668503617705e+01 5.6773621654634965e+01 0.0000000000000000e+00 0.0000000000000000e+00 0.0000000000000000e+00 0.0000000000000000e+00  -5.8595893953548284e+01 -6.6212886698870761e+01 0.0000000000000000e+00 -6.6212886698870761e+01 8.4822481723331151e+01 0.0000000000000000e+00 0.0000000000000000e+00 0.0000000000000000e+00 0.0000000000000000e+00  3.0197292740939957e+01 -1.6314946320112050e+01 0.0000000000000000e+00 -1.6314946320112050e+01 1.3272345007480904e+01 0.0000000000000000e+00 0.0000000000000000e+00 0.0000000000000000e+00 0.0000000000000000e+00  6.5546808148697110e+01 4.2712834403868181e+00 0.0000000000000000e+00 4.2712834403868181e+00 -2.5667648555897287e+01 0.0000000000000000e+00 0.0000000000000000e+00 0.0000000000000000e+00 0.0000000000000000e+00  1.8769025219913008e+01 3.9109913133286041e+00 0.0000000000000000e+00 3.9109913133286041e+00 2.4146928848906800e+01 0.0000000000000000e+00 0.0000000000000000e+00 0.0000000000000000e+00 0.0000000000000000e+00  -7.6811520397063944e+01 4.9773483258615006e+00 0.0000000000000000e+00 4.9773483258615006e+00 1.1855424947622647e+02 0.0000000000000000e+00 0.0000000000000000e+00 0.0000000000000000e+00 0.0000000000000000e+00  -1.2091275319581503e+02 3.0611747707364469e+01 0.0000000000000000e+00 3.0611747707364469e+01 1.5685930507233670e+02 0.0000000000000000e+00 0.0000000000000000e+00 0.0000000000000000e+00 0.0000000000000000e+00  -5.0985346998363212e+01 2.8915779902942017e+01 0.0000000000000000e+00 2.8915779902942017e+01 1.0265420093328159e+02 0.0000000000000000e+00 0.0000000000000000e+00 0.0000000000000000e+00 0.0000000000000000e+00  5.8567067190411448e+00 -1.6306457542854744e+01 0.0000000000000000e+00 -1.6306457542854744e+01 3.2459935227514329e+01 0.0000000000000000e+00 0.0000000000000000e+00 0.0000000000000000e+00 0.0000000000000000e+00  2.6443316955453025e+01 -8.7351063030891012e+01 0.0000000000000000e+00 -8.7351063030891012e+01 1.7523454958283292e+01 0.0000000000000000e+00 0.0000000000000000e+00 0.0000000000000000e+00 0.0000000000000000e+00  3.1990987285188229e+01 -3.9708882308563460e+01 0.0000000000000000e+00 -3.9708882308563460e+01 5.8886277456412399e+00 0.0000000000000000e+00 0.0000000000000000e+00 0.0000000000000000e+00 0.0000000000000000e+00  6.6679867379527110e+01 5.6256130491418489e+01 0.0000000000000000e+00 5.6256130491418489e+01 -2.4101413067711757e+01 0.0000000000000000e+00 0.0000000000000000e+00 0.0000000000000000e+00 0.0000000000000000e+00  9.9604825938318228e+01 6.1569984417999891e+01 0.0000000000000000e+00 6.1569984417999891e+01 -6.1825099092471284e+01 0.0000000000000000e+00 0.0000000000000000e+00 0.0000000000000000e+00 0.0000000000000000e+00  2.7872633248255447e+01 2.4911285353504791e+01 0.0000000000000000e+00 2.4911285353504791e+01 1.9080814986435005e+01 0.0000000000000000e+00 0.0000000000000000e+00 0.0000000000000000e+00 0.0000000000000000e+00  -6.2056005767778046e+01 2.6272624976826290e+01 0.0000000000000000e+00 2.6272624976826290e+01 9.8714084268399745e+01 0.0000000000000000e+00 0.0000000000000000e+00 0.0000000000000000e+00 0.0000000000000000e+00  -1.1207615456493502e+02 7.9982125963586967e+01 0.0000000000000000e+00 7.9982125963586967e+01 1.4871779618367052e+02 0.0000000000000000e+00 0.0000000000000000e+00 0.0000000000000000e+00 0.0000000000000000e+00  -9.7761015803037381e+01 1.0874856208454246e+02 0.0000000000000000e+00 1.0874856208454246e+02 1.3371712422889436e+02 0.0000000000000000e+00 0.0000000000000000e+00 0.0000000000000000e+00 0.0000000000000000e+00  -2.5265658075957194e+01 9.2846244716398743e+01 0.0000000000000000e+00 9.2846244716398743e+01 7.0505582344247472e+01 0.0000000000000000e+00 0.0000000000000000e+00 0.0000000000000000e+00 0.0000000000000000e+00  9.2429102506439387e-01 2.1915117644528355e+01 0.0000000000000000e+00 2.1915117644528355e+01 6.0585436306419354e+01 0.0000000000000000e+00 0.0000000000000000e+00 0.0000000000000000e+00 0.0000000000000000e+00  2.7794408462969937e+01 -4.8256515391561248e+00 0.0000000000000000e+00 -4.8256515391561248e+00 1.8465456716808550e+01 0.0000000000000000e+00 0.0000000000000000e+00 0.0000000000000000e+00 0.0000000000000000e+00  3.7290302229706278e+01 1.8962791202194289e+01 0.0000000000000000e+00 1.8962791202194289e+01 1.0718539543699091e+01 0.0000000000000000e+00 0.0000000000000000e+00 0.0000000000000000e+00 0.0000000000000000e+00  5.7416179661843849e+01 4.5982501757169068e+01 0.0000000000000000e+00 4.5982501757169068e+01 -1.7044982003392679e+01 0.0000000000000000e+00 0.0000000000000000e+00 0.0000000000000000e+00 0.0000000000000000e+00  4.9000762627199947e+01 3.2551764593516701e+01 0.0000000000000000e+00 3.2551764593516701e+01 -1.1901833670712801e+01 0.0000000000000000e+00 0.0000000000000000e+00 0.0000000000000000e+00 0.0000000000000000e+00  -1.4834026109543178e+01 9.6340973194311736e+00 0.0000000000000000e+00 9.6340973194311772e+00 5.6660837547456801e+01 0.0000000000000000e+00 0.0000000000000000e+00 0.0000000000000000e+00 0.0000000000000000e+00  -7.8448294455530174e+01 1.9042514334285791e+01 0.0000000000000000e+00 1.9042514334285791e+01 1.2593939231274250e+02 0.0000000000000000e+00 0.0000000000000000e+00 0.0000000000000000e+00 0.0000000000000000e+00  -7.2480888473450420e+01 1.4799718500662888e+01 0.0000000000000000e+00 1.4799718500662888e+01 1.0016403567635824e+02 0.0000000000000000e+00 0.0000000000000000e+00 0.0000000000000000e+00 0.0000000000000000e+00  -1.1871255096901427e+01 -2.0129056728094163e+01 0.0000000000000000e+00 -2.0129056728094163e+01 4.9457577158692132e+01 0.0000000000000000e+00 0.0000000000000000e+00 0.0000000000000000e+00 0.0000000000000000e+00  2.9369410600320055e+01 -8.4457272039232322e+01 0.0000000000000000e+00 -8.4457272039232322e+01 -2.3932180743027409e-01 0.0000000000000000e+00 0.0000000000000000e+00 0.0000000000000000e+00 0.0000000000000000e+00  2.9346145679923044e+01 -7.4994991975170990e+01 0.0000000000000000e+00 -7.4994991975170990e+01 6.0235791904938489e+00 0.0000000000000000e+00 0.0000000000000000e+00 0.0000000000000000e+00 0.0000000000000000e+00  7.4901360947049113e+01 4.0338086481538525e+01 0.0000000000000000e+00 4.0338086481538525e+01 -3.5970004969896948e+01 0.0000000000000000e+00 0.0000000000000000e+00 0.0000000000000000e+00 0.0000000000000000e+00  7.7833403599658240e+01 7.7034131947236233e+01 0.0000000000000000e+00 7.7034131947236233e+01 -6.1080249541814283e+01 0.0000000000000000e+00 0.0000000000000000e+00 0.0000000000000000e+00 0.0000000000000000e+00  8.6260586657498095e+01 3.3423077435575671e+01 0.0000000000000000e+00 3.3423077435575671e+01 -3.7459031076906165e+01 0.0000000000000000e+00 0.0000000000000000e+00 0.0000000000000000e+00 0.0000000000000000e+00  2.1376735117110179e+01 1.7418781297141049e+01 0.0000000000000000e+00 1.7418781297141049e+01 6.8091979718467650e+00 0.0000000000000000e+00 0.0000000000000000e+00 0.0000000000000000e+00 0.0000000000000000e+00  -2.8327731125058630e+01 2.1729359422353479e+01 0.0000000000000000e+00 2.1729359422353479e+01 5.4249866102731531e+01 0.0000000000000000e+00 0.0000000000000000e+00 0.0000000000000000e+00 0.0000000000000000e+00  1.0800726877381559e+01 -3.8128827818127192e+01 0.0000000000000000e+00 -3.8128827818127192e+01 2.6723246321911343e+01 0.0000000000000000e+00 0.0000000000000000e+00 0.0000000000000000e+00 0.0000000000000000e+00  3.6924748936352451e+01 -9.3659251719941736e+01 0.0000000000000000e+00 -9.3659251719941736e+01 -5.1464002174309610e-02 0.0000000000000000e+00 0.0000000000000000e+00 0.0000000000000000e+00 0.0000000000000000e+00  2.6809753287036294e+01 -3.8441888177514301e+01 0.0000000000000000e+00 -3.8441888177514301e+01 7.8048887821364668e+00 0.0000000000000000e+00 0.0000000000000000e+00 0.0000000000000000e+00 0.0000000000000000e+00  7.0924761023267536e+01 5.9012075816101557e+01 0.0000000000000000e+00 5.9012075816101557e+01 -3.2783854405336264e+01 0.0000000000000000e+00 0.0000000000000000e+00 0.0000000000000000e+00 0.0000000000000000e+00  1.2069081719530990e+02 6.7458023651681671e+01 0.0000000000000000e+00 6.7458023651681671e+01 -8.5569727022257609e+01 0.0000000000000000e+00 0.0000000000000000e+00 0.0000000000000000e+00 0.0000000000000000e+00  6.5152486369397607e+01 1.2442003851097626e+01 0.0000000000000000e+00 1.2442003851097626e+01 -3.2108330070050506e+01 0.0000000000000000e+00 0.0000000000000000e+00 0.0000000000000000e+00 0.0000000000000000e+00  2.9090682838685478e+01 8.1676042991276283e+00 0.0000000000000000e+00 8.1676042991276283e+00 8.1036742825382611e+00 0.0000000000000000e+00 0.0000000000000000e+00 0.0000000000000000e+00 0.0000000000000000e+00  2.0603739904791016e+01 8.6776693532555349e-01 0.0000000000000000e+00 8.6776693532555349e-01 1.4789699884236475e+01 0.0000000000000000e+00 0.0000000000000000e+00 0.0000000000000000e+00 0.0000000000000000e+00  1.4212118779553706e+00 -2.7127551209310048e+00 0.0000000000000000e+00 -2.7127551209310048e+00 2.6095297651510265e+01 0.0000000000000000e+00 0.0000000000000000e+00 0.0000000000000000e+00 0.0000000000000000e+00  4.7300478429772674e+01 -2.1123844215549340e+01 0.0000000000000000e+00 -2.1123844215549340e+01 -1.2404800797202375e+01 0.0000000000000000e+00 0.0000000000000000e+00 0.0000000000000000e+00 0.0000000000000000e+00  9.3709905145934371e+01 -5.4688136848947920e+01 0.0000000000000000e+00 -5.4688136848947920e+01 -5.7335997520043648e+01 0.0000000000000000e+00 0.0000000000000000e+00 0.0000000000000000e+00 0.0000000000000000e+00  8.3781234491107952e+01 -8.2567958050099691e+01 0.0000000000000000e+00 -8.2567958050099691e+01 -6.0001916451165776e+01 0.0000000000000000e+00 0.0000000000000000e+00 0.0000000000000000e+00 0.0000000000000000e+00  3.7990070414386821e+01 1.3741179586254237e+01 0.0000000000000000e+00 1.3741179586254237e+01 -6.4476417961054375e+00 0.0000000000000000e+00 0.0000000000000000e+00 0.0000000000000000e+00 0.0000000000000000e+00  1.3558354944015662e+01 7.6019967482462462e+01 0.0000000000000000e+00 7.6019967482462462e+01 2.1817490550512396e+01 0.0000000000000000e+00 0.0000000000000000e+00 0.0000000000000000e+00 0.0000000000000000e+00  -4.9404310589548777e+00 1.4178231027689417e+01 0.0000000000000000e+00 1.4178231027689417e+01 3.3106026471903938e+01 0.0000000000000000e+00 0.0000000000000000e+00 0.0000000000000000e+00 0.0000000000000000e+00  -6.2417356894078132e+01 -4.7998515705285627e+01 0.0000000000000000e+00 -4.7998515705285620e+01 8.0749158678020422e+01 0.0000000000000000e+00 0.0000000000000000e+00 0.0000000000000000e+00 0.0000000000000000e+00  -7.4179972235974063e+01 -4.8715376391528338e+01 0.0000000000000000e+00 -4.8715376391528338e+01 9.3349884703840317e+01 0.0000000000000000e+00 0.0000000000000000e+00 0.0000000000000000e+00 0.0000000000000000e+00  1.1877038597711271e+01 2.1393561356303034e-01 0.0000000000000000e+00 2.1393561356303034e-01 5.8684041667947895e+00 0.0000000000000000e+00 0.0000000000000000e+00 0.0000000000000000e+00 0.0000000000000000e+00  2.2650464230860923e+01 -1.5361921536419750e+01 0.0000000000000000e+00 -1.5361921536419750e+01 3.5273022870911777e+00 0.0000000000000000e+00 0.0000000000000000e+00 0.0000000000000000e+00 0.0000000000000000e+00  7.5328720301918977e+01 -9.3581880859665588e+01 0.0000000000000000e+00 -9.3581880859665588e+01 -6.9200467228006829e+01 0.0000000000000000e+00 0.0000000000000000e+00 0.0000000000000000e+00 0.0000000000000000e+00  7.0191268840032393e+01 -7.4029864226596160e+01 0.0000000000000000e+00 -7.4029864226596160e+01 -4.6718973619561432e+01 0.0000000000000000e+00 0.0000000000000000e+00 0.0000000000000000e+00 0.0000000000000000e+00  2.6301001909927617e+01 1.2927210952349610e-01 0.0000000000000000e+00 1.2927210952349605e-01 -1.5150776959796866e+00 0.0000000000000000e+00 0.0000000000000000e+00 0.0000000000000000e+00 0.0000000000000000e+00  -6.8825723923508191e+00 -1.4839443614583894e+01 0.0000000000000000e+00 -1.4839443614583894e+01 2.9400836095555857e+01 0.0000000000000000e+00 0.0000000000000000e+00 0.0000000000000000e+00 0.0000000000000000e+00  -7.9591117975914102e+01 -7.8610569727995397e+01 0.0000000000000000e+00 -7.8610569727995397e+01 1.1415714710366483e+02 0.0000000000000000e+00 0.0000000000000000e+00 0.0000000000000000e+00 0.0000000000000000e+00  -2.5433594255848863e+02 -9.1346524683353536e+01 0.0000000000000000e+00 -9.1346524683353536e+01 2.6743170710935345e+02 0.0000000000000000e+00 0.0000000000000000e+00 0.0000000000000000e+00 0.0000000000000000e+00  -2.8281360053522206e+02 -2.6157906912526549e+01 0.0000000000000000e+00 -2.6157906912526549e+01 2.5936302740966067e+02 0.0000000000000000e+00 0.0000000000000000e+00 0.0000000000000000e+00 0.0000000000000000e+00  -1.4043617091777378e+02 5.4043731423313830e+01 0.0000000000000000e+00 5.4043731423313830e+01 1.2372629045122855e+02 0.0000000000000000e+00 0.0000000000000000e+00 0.0000000000000000e+00 0.0000000000000000e+00  -3.8817760458234510e+01 3.6444370820679453e+01 0.0000000000000000e+00 3.6444370820679453e+01 4.7678993534893593e+01 0.0000000000000000e+00 0.0000000000000000e+00 0.0000000000000000e+00 0.0000000000000000e+00  -4.8490483222725453e+00 1.3556269584293783e+00 0.0000000000000000e+00 1.3556269584293783e+00 1.0848255217111499e+01 0.0000000000000000e+00 0.0000000000000000e+00 0.0000000000000000e+00 0.0000000000000000e+00  7.4346284030270597e+00 3.0195753840925250e+00 0.0000000000000000e+00 3.0195753840925250e+00 4.2778553536693913e+00 0.0000000000000000e+00 0.0000000000000000e+00 0.0000000000000000e+00 0.0000000000000000e+00  4.2052116405927535e+01 -8.1195386183554092e+01 0.0000000000000000e+00 -8.1195386183554092e+01 7.5959987919673907e+01 0.0000000000000000e+00 0.0000000000000000e+00 0.0000000000000000e+00 0.0000000000000000e+00  3.9667044255502782e+02 2.4748336527074460e+02 0.0000000000000000e+00 2.4748336527074460e+02 1.0065536393846440e+02 0.0000000000000000e+00 0.0000000000000000e+00 0.0000000000000000e+00 0.0000000000000000e+00  4.7842034943968264e+00 1.0231844578112991e+02 0.0000000000000000e+00 1.0231844578112991e+02 1.6338473681585551e+01 0.0000000000000000e+00 0.0000000000000000e+00 0.0000000000000000e+00 0.0000000000000000e+00  2.3565479536459517e+01 -8.2987664034824995e+00 0.0000000000000000e+00 -8.2987664034824995e+00 2.7096413927590202e+01 0.0000000000000000e+00 0.0000000000000000e+00 0.0000000000000000e+00 0.0000000000000000e+00  2.4618422141966587e+01 -2.2332609018498357e+02 0.0000000000000000e+00 -2.2332609018498357e+02 -9.0553500466960344e+00 0.0000000000000000e+00 0.0000000000000000e+00 0.0000000000000000e+00 0.0000000000000000e+00  7.7317453897249422e-01 1.1418863427506210e+00 0.0000000000000000e+00 1.1418863427506210e+00 -2.4215610831869622e+01 0.0000000000000000e+00 0.0000000000000000e+00 0.0000000000000000e+00 0.0000000000000000e+00  1.8893668812924997e+01 1.0961683744998804e+02 0.0000000000000000e+00 1.0961683744998804e+02 9.2227491254101270e+00 0.0000000000000000e+00 0.0000000000000000e+00 0.0000000000000000e+00 0.0000000000000000e+00  2.0006314771077788e+02 -8.9748425725204598e+01 0.0000000000000000e+00 -8.9748425725204598e+01 3.3827004483563905e+00 0.0000000000000000e+00 0.0000000000000000e+00 0.0000000000000000e+00 0.0000000000000000e+00  2.6336850503358107e+01 1.1184417848192706e+02 0.0000000000000000e+00 1.1184417848192706e+02 6.4626041377280306e+00 0.0000000000000000e+00 0.0000000000000000e+00 0.0000000000000000e+00 0.0000000000000000e+00  1.8087386621783207e+01 5.4547904882181363e+01 0.0000000000000000e+00 5.4547904882181363e+01 3.0379717604944727e+01 0.0000000000000000e+00 0.0000000000000000e+00 0.0000000000000000e+00 0.0000000000000000e+00  1.4304257804539539e+01 9.2825817737878125e-01 0.0000000000000000e+00 9.2825817737878125e-01 3.2509867827905857e+01 0.0000000000000000e+00 0.0000000000000000e+00 0.0000000000000000e+00 0.0000000000000000e+00  2.5407016345710709e+01 1.3219994863185450e-01 0.0000000000000000e+00 1.3219994863185450e-01 2.5477772091391312e+01 0.0000000000000000e+00 0.0000000000000000e+00 0.0000000000000000e+00 0.000000000