<?xml version="1.0"?>
<VTKFile type="UnstructuredGrid"  version="0.1"  >
<UnstructuredGrid>
<Piece  NumberOfPoints="4835" NumberOfCells="9296">
<Points>
<DataArray  type="Float64"  NumberOfComponents="3"  format="ascii">0 1.5 0  -0 0.1307014797437256 0  0.01134725726173103 0.1483581566929452 0  0.04283342385313163 0.181379897845022 0  0.08000000000000007 0.2078460969082653 0  0.1215036888038188 0.2268001964915204 0  0.1658444388144116 0.2375571460514239 0  0.2114196597976982 0.2397281614039219 0  0.2565821445222626 0.23323477639765 0  0.2996996031204527 0.2183116788850844 0  0.3392136582970876 0.1954982284920806 0  0.3736961691452169 0.1656189627557069 0  0.4019008478794835 0.1297537961893434 0  0.4059948616314525 0.1218125174167552 0  0.4254856317806581 0.1498156710261111 0  0.4592156240140376 0.1818784194956707 0  0.498709345141744 0.2064950441012706 0  0.5423499175804942 0.222657737339227 0  0.588350691167096 0.2297047966493422 0  0.6348283888260526 0.2273477145954656 0  0.6798802081543086 0.2156829903938285 0  0.7216617223752013 0.1951881792237927 0  0.7584623913874079 0.1667023410626976 0  0.7879811633353602 0.1323170874919288 0  0.8152477706948351 0.1684239109116393 0  0.849341340905186 0.1995043068200599 0  0.8885654110558655 0.2237908228387656 0  0.9315842524819793 0.2404564107932048 0  0.9769329101341745 0.2489335440737586 0  1.023067089865825 0.2489335440737586 0  1.068415747518021 0.2404564107932048 0  1.111434588944135 0.2237908228387656 0  1.150658659094814 0.1995043068200599 0  1.184752229305165 0.1684239109116393 0  1.212554283932403 0.1316080407193389 0  1.233118057351089 0.09031041654678823 0  1.245743274920975 0.04593737945414259 0  1.25 0 0  1.36108673858246 0 0  1.36108673858246 0.02281345039300389 0  1.369721686332521 0.06761581364194322 0  1.386679492322819 0.1099743652145785 0  1.411347257261731 0.1483581566929452 0  1.442833423853132 0.181379897845022 0  1.48 0.2078460969082653 0  1.521503688803819 0.2268001964915204 0  1.565844438814412 0.2375571460514239 0  1.611419659797698 0.2397281614039219 0  1.656582144522263 0.23323477639765 0  1.699699603120453 0.2183116788850844 0  1.739213658297088 0.1954982284920806 0  1.765497292517293 0.1727233297951148 0  1.79 0.1905255888325765 0  1.832016261237511 0.2092324335849338 0  1.877003738081116 0.2187948169810202 0  1.922996261918884 0.2187948169810201 0  1.967983738762488 0.2092324335849338 0  2.01 0.1905255888325765 0  2.047208733398949 0.1634918616050267 0  2.077983738762488 0.1293127555043441 0  2.087980221556173 0.1119983394086949 0  2.111347257261731 0.1483581566929452 0  2.142833423853131 0.181379897845022 0  2.18 0.2078460969082653 0  2.221503688803819 0.2268001964915204 0  2.265844438814411 0.2375571460514239 0  2.311419659797698 0.2397281614039219 0  2.356582144522263 0.23323477639765 0  2.399699603120453 0.2183116788850844 0  2.439213658297088 0.1954982284920806 0  2.457172785224357 0.179936556425434 0  2.459215624014038 0.1818784194956707 0  2.498709345141744 0.2064950441012706 0  2.542349917580494 0.222657737339227 0  2.588350691167096 0.2297047966493422 0  2.634828388826053 0.2273477145954656 0  2.679880208154309 0.2156829903938285 0  2.721661722375202 0.1951881792237927 0  2.758462391387408 0.1667023410626976 0  2.788775591477674 0.1313916894718022 0  2.811360296672653 0.09070184667606328 0  2.825291886488074 0.04629865962039181 0  2.83 0 0  3 0 0  3 1.5 0  0 0.8023345134541607 0  0.4157402467060553 0.1358140942214332 0  3 0.75 0  1.5 1.5 0  0 0.4665179965989431 0  3 0.375 0  0 0.2986097381713344 0  0 0.21465560895753 0  0 0.1726785443506278 0  0 0.1516900120471767 0  2.25 1.5 0  0.75 1.5 0  1.169989811679434 0.9093651732355621 0  1.875 0.9142758100523694 0  0.5779365036100435 0.9330077223331824 0  2.43246936225428 0.7976868957014953 0  3 1.125 0  2.625 1.5 0  0.375 1.5 0  0 1.15116725672708 0  1.449253057879235 0.6213873587688492 0  0.7697361971202799 0.5943793911944208 0  0.3630076616442724 0.6080350564914153 0  2.069570984533324 0.5812833454367354 0  1.875 1.5 0  1.125 1.5 0  2.4375 1.173854331507092 0  0.8831005780031504 1.150004411874495 0  1.52207987625039 0.9714054497350916 0  2.0625 1.207137905026185 0  1.107793318688589 0.5766433232347881 0  1.3125 1.2274095306559 0  2.729985961523573 0.9375 0  2.711750443384031 0.5625 0  1.6875 1.243073622519403 0  1.760894209596057 0.6242614373612321 0  0.2643049832376852 0.9767508850906206 0  0.4566194854768236 1.209399638766609 0  2.728217267602858 1.228217267602858 0  2.374499195658668 0.518153287180279 0  2.169650674143702 0.9320836008992801 0  0.8550719231757007 0.8663457099410541 0  1.303567858855371 0.4078893824383345 0  0.2133194436665546 1.297827371069245 0  0.5308017499037517 0.4517023193912283 0  1.083077097725883 1.270382833575872 0  0.6830238102386342 1.274223132985906 0  2.250983943328481 0.6895458766515071 0  1.81089184968521 0.4192208869708923 0  1.679274712803154 0.8238291020339636 0  1.5785148524717 0.4510287526682343 0  0 0.6344262550265519 0  0.2138866804674432 0.765685327335986 0  0.5683532856219899 0.6602211278972628 0  0.9375 1.5 0  0.93201471049342 0.4568525359126817 0  1.262687644113192 0.7198627504483751 0  0.4154000952342595 0.8069446327163143 0  0.2139559556345817 0.4540330649264536 0  2.06977986811652 0.3813318272583126 0  0.7200651071201811 0.4061566188086219 0  1.932157822851692 0.7243325602448901 0  0.9441947922338874 0.689010158618046 0  3 1.3125 0  2.8125 1.5 0  0.5625 1.5 0  1.865575888969794 1.126762336039809 0  1.691368628814911 1.054521333692312 0  2.243682835689564 1.11932177110543 0  2.294933652681559 1.30886281903233 0  2.4375 1.5 0  2.385653526545621 0.9864303388879195 0  2.560603055863368 1.320052196970997 0  2.605098352881707 1.08210421072607 0  2.797310903081369 0.7462827406561878 0  1.497248537655819 1.30111187331848 0  1.6875 1.5 0  3 0.5625 0  3 0.9375 0  1.3125 1.5 0  2.0625 1.5 0  3 0.1875 0  0.1875 1.5 0  0.9978323986844071 0.9954535003819682 0  0.7455388243606953 1.020382929522352 0  1.904625246064701 1.312514164033404 0  1.15622562020362 1.097022204090454 0  1.332774827327096 1.015638362851981 0  2.617489052932561 0.7904306825848915 0  2.798834931624827 0.3810601956207291 0  2.518702939674024 0.6340258449062608 0  1.42862153170688 0.8082655083169574 0  2.016051725629557 1.02698392558818 0  2.557580898838836 0.4303899543284488 0  0.9143579924460792 1.324371521638632 0  0.6907201107072946 0.792483910827579 0  0 1.32558362836354 0  0 0.9767508850906206 0  0.6046140448732628 1.120294499938289 0  1.129353874055204 0.4037183319394277 0  2.240578803971554 0.4086758810341738 0  1.544887400155686 1.138911442832316 0  2.828734594747712 1.083464790593587 0  0.401358428169992 0.3487630281226344 0  0.1737226743516005 1.126953194380642 0  1.219293394173851 1.36370476532795 0  2.095593203128485 0.7438044944874065 0  1.099947866649755 0.7404984974094087 0  0.4225987016856009 0.9654760294046846 0  1.265404984472296 0.5615537191035901 0  1.908099381276504 0.55154028811489 0  1.605233217264331 0.6055204891939014 0  0.2070403235706232 0.6098576665994301 0  0.46875 1.369568887475175 0  2.529999076220762 0.9220559311443081 0  0.3296306516835505 1.118561581461605 0  2.136891098712708 1.353568952513092 0  0.1250262355603041 0.8895426992723907 0  2.286468869522623 0.8363516131379349 0  2.03024950667879 0.8782110935537075 0  2.71875 1.380113023166798 0  2.851157149000174 1.312122703709591 0  2.855875221692015 0.6072101925796368 0  1.766081959310164 1.371536811259701 0  2.417227117459742 0.3724437385102629 0  1.365276810157265 1.363519047380362 0  1.451310499971155 0.3640091006357036 0  2.211012611580202 0.5503989260541815 0  1.306789156675977 0.2570819477057019 0  2.872418607762505 0.256220469598872 0  2.896902016958361 0.84375 0  0.6487095286926469 0.5256523827174592 0  1.021477811485347 1.13286821063065 0  1.622350554793597 1.371881362989231 0  1.297557547403682 0.854343314165958 0  0.5529398034156436 0.7974238691464364 0  1.000783388185185 0.848708117631217 0  0.8152141294141361 0.735251676415229 0  2.383386472338196 0.654760318649699 0  1.031024064601143 1.39833771698851 0  1.812756223744312 0.7919737740986065 0  2.902150447032281 0.46875 0  1.558478314279628 0.7430881247578319 0  2.428095049619715 1.306700780290589 0  0.3309906154406318 1.369459454266083 0  0.117457385934373 0.361895434578648 0  0.4016309285334721 0.4812757168525422 0  1.933925005895449 0.3564723397117748 0  0.7479761182598068 1.155601287121883 0  0.09711831342126455 1.23837544254531 0  1.384025258268523 0.5094422387329146 0  2.188092881729461 1.235445092789212 0  0.116614462422195 1.388212202394539 0  0.5993432477835932 1.374610260003488 0  0.8731519049868882 1.022757560732678 0  0.1109021857268646 0.5275252102504697 0  1.703820060431276 0.5017282682884084 0  0.1118224159219883 0.6921053365242938 0  0.3267069786561488 1.244030051070764 0  2.878127312164905 0.9679608000003684 0  1.408346090782441 1.129729637108486 0  0.8047358880839842 0.3153623688883521 0  2.6405066654848 0.6664933064830099 0  0.4805702216488833 1.081724858267193 0  2.668084598222495 0.3562155878484895 0  2.138121375887776 1.052804865904559 0  1.96875 1.5 0  0.4891907154726056 0.5668366043293971 0  0.1473863332166031 1.0086557402922 0  2.558860649578938 1.196592162044302 0  1.717555244640741 0.3396535732296396 0  0.84375 1.5 0  0.7839942032523698 1.367093097528149 0  3 1.40625 0  2.484124862262918 1.060073596740424 0  3 1.21875 0  2.34375 1.5 0  0.8196209764267471 1.251369088398821 0  2.023202270335131 1.319214170177879 0  0.5721208504581607 1.233781127425821 0  1.984735816620384 0.462442873488178 0  0.6955333931194808 0.9118686683832042 0  1.19123464962554 1.213906677421382 0  0.8929803638185398 0.5752987850534633 0  1.566736823664244 0.8614646887466211 0  1.808684073906441 1.017786844668201 0  1.719105195888173 0.9374041347540488 0  1.671476674178274 0.70476362875428 0  1.218260709491531 0.330629071498573 0  2.839021519587611 1.19788439058923 0  0.5170070740021471 0.3361933937254621 0  1.393527188254162 0.91788143976
[...]
<PointData  Tensors="f_416"> 
<DataArray  type="Float64"  Name="f_416"  NumberOfComponents="9" format="ascii">-9.9564980286284026e+00 1.9274368660268253e+00 0.0000000000000000e+00 1.9274368660268253e+00 -1.5437937648563812e+01 0.0000000000000000e+00 0.0000000000000000e+00 0.0000000000000000e+00 0.0000000000000000e+00  2.8607433537978970e+01 -1.0490062084473417e+00 0.0000000000000000e+00 -1.0490062084473417e+00 2.6300759511727790e+01 0.0000000000000000e+00 0.0000000000000000e+00 0.0000000000000000e+00 0.0000000000000000e+00  2.9027527304006245e+01 -2.8256894247024322e-01 0.0000000000000000e+00 -2.8256894247024322e-01 2.5099913198216964e+01 0.0000000000000000e+00 0.0000000000000000e+00 0.0000000000000000e+00 0.0000000000000000e+00  3.9781236174348706e+01 -9.4300016208763289e+00 0.0000000000000000e+00 -9.4300016208763289e+00 1.0668319888952054e+01 0.0000000000000000e+00 0.0000000000000000e+00 0.0000000000000000e+00 0.0000000000000000e+00  6.0482059104676473e+01 -2.1386132409401817e+01 0.0000000000000000e+00 -2.1386132409401817e+01 -7.9937475977268226e+00 0.0000000000000000e+00 0.0000000000000000e+00 0.0000000000000000e+00 0.0000000000000000e+00  5.1140581486870126e+01 -2.1226358028729035e+01 0.0000000000000000e+00 -2.1226358028729035e+01 -1.0170144934459469e+01 0.0000000000000000e+00 0.0000000000000000e+00 0.0000000000000000e+00 0.0000000000000000e+00  1.0027801117512301e+01 9.0343075734936864e+00 0.0000000000000000e+00 9.0343075734936864e+00 2.1916909762622740e+01 0.0000000000000000e+00 0.0000000000000000e+00 0.0000000000000000e+00 0.0000000000000000e+00  2.5129897412132138e+01 5.4733360157247589e+01 0.0000000000000000e+00 5.4733360157247589e+01 1.7730915937705028e+01 0.0000000000000000e+00 0.0000000000000000e+00 0.0000000000000000e+00 0.0000000000000000e+00  3.3302435263571425e+01 2.7989659508148886e+01 0.0000000000000000e+00 2.7989659508148886e+01 1.4468506067208144e+01 0.0000000000000000e+00 0.0000000000000000e+00 0.0000000000000000e+00 0.0000000000000000e+00  -4.2571068567257937e+00 -1.0581254898628036e+00 0.0000000000000000e+00 -1.0581254898628036e+00 5.2385262358830651e+01 0.0000000000000000e+00 0.0000000000000000e+00 0.0000000000000000e+00 0.0000000000000000e+00  -2.1574668624480946e+01 -7.4972280304087473e+00 0.0000000000000000e+00 -7.4972280304087473e+00 6.6120861984139864e+01 0.0000000000000000e+00 0.0000000000000000e+00 0.0000000000000000e+00 0.0000000000000000e+00  -2.1296880105974914e+01 -5.9299325509491974e+00 0.0000000000000000e+00 -5.9299325509491974e+00 6.2297056149664748e+01 0.0000000000000000e+00 0.0000000000000000e+00 0.0000000000000000e+00 0.0000000000000000e+00  2.6911345522989823e+01 4.7803788014924811e+00 0.0000000000000000e+00 4.7803788014924811e+00 2.8652860430781377e+01 0.0000000000000000e+00 0.0000000000000000e+00 0.0000000000000000e+00 0.0000000000000000e+00  2.6309718895948400e+01 -1.5811266927459398e+00 0.0000000000000000e+00 -1.5811266927459398e+00 2.0753937926797438e+01 0.0000000000000000e+00 0.0000000000000000e+00 0.0000000000000000e+00 0.0000000000000000e+00  4.2614077813984288e+01 -7.5382116460489090e-01 0.0000000000000000e+00 -7.5382116460489090e-01 2.5022468150018806e-01 0.0000000000000000e+00 0.0000000000000000e+00 0.0000000000000000e+00 0.0000000000000000e+00  3.7992369630310257e+01 -6.0683786211651256e+00 0.0000000000000000e+00 -6.0683786211651256e+00 3.7434096705813404e+00 0.0000000000000000e+00 0.0000000000000000e+00 0.0000000000000000e+00 0.0000000000000000e+00  5.5979428381229512e+00 2.1099880659077201e+01 0.0000000000000000e+00 2.1099880659077201e+01 3.8806854329958860e+01 0.0000000000000000e+00 0.0000000000000000e+00 0.0000000000000000e+00 0.0000000000000000e+00  8.1819496820149880e+00 4.1687544712027062e+01 0.0000000000000000e+00 4.1687544712027062e+01 4.7067548491307377e+01 0.0000000000000000e+00 0.0000000000000000e+00 0.0000000000000000e+00 0.0000000000000000e+00  1.5638965905036512e+01 1.4330459398169131e+01 0.0000000000000000e+00 1.4330459398169131e+01 3.8199889387580164e+01 0.0000000000000000e+00 0.0000000000000000e+00 0.0000000000000000e+00 0.0000000000000000e+00  1.4544651723758998e+01 -3.5697228453772368e+01 0.0000000000000000e+00 -3.5697228453772368e+01 3.7950432321288659e+01 0.0000000000000000e+00 0.0000000000000000e+00 0.0000000000000000e+00 0.0000000000000000e+00  -7.8801411252299598e+00 -2.7060979458151618e+01 0.0000000000000000e+00 -2.7060979458151618e+01 4.3843805673921757e+01 0.0000000000000000e+00 0.0000000000000000e+00 0.0000000000000000e+00 0.0000000000000000e+00  2.5759773018084523e+01 -7.6389731457719616e+00 0.0000000000000000e+00 -7.6389731457719616e+00 1.8768340500724921e+01 0.0000000000000000e+00 0.0000000000000000e+00 0.0000000000000000e+00 0.0000000000000000e+00  4.6339822473042986e+01 -4.7781795662667897e-01 0.0000000000000000e+00 -4.7781795662667897e-01 -2.5913296159494581e+00 0.0000000000000000e+00 0.0000000000000000e+00 0.0000000000000000e+00 0.0000000000000000e+00  2.1421634532547927e+01 1.2154793480907760e+00 0.0000000000000000e+00 1.2154793480907760e+00 2.3312680637582133e+01 0.0000000000000000e+00 0.0000000000000000e+00 0.0000000000000000e+00 0.0000000000000000e+00  -2.2714816952450661e+01 2.7187938552685345e+00 0.0000000000000000e+00 2.7187938552685345e+00 6.6421251020483581e+01 0.0000000000000000e+00 0.0000000000000000e+00 0.0000000000000000e+00 0.0000000000000000e+00  -3.1327661111988093e+01 1.2832790323151677e+01 0.0000000000000000e+00 1.2832790323151677e+01 7.3262236805696872e+01 0.0000000000000000e+00 0.0000000000000000e+00 0.0000000000000000e+00 0.0000000000000000e+00  -7.4952497970837806e+00 1.2719464373900175e+01 0.0000000000000000e+00 1.2719464373900175e+01 5.3391226569189598e+01 0.0000000000000000e+00 0.0000000000000000e+00 0.0000000000000000e+00 0.0000000000000000e+00  1.0461952039663444e+01 -9.5900510877850493e+00 0.0000000000000000e+00 -9.5900510877850493e+00 2.6544097409517530e+01 0.0000000000000000e+00 0.0000000000000000e+00 0.0000000000000000e+00 0.0000000000000000e+00  2.7074300025591793e+01 -3.3759138850863039e+01 0.0000000000000000e+00 -3.3759138850863039e+01 1.7277795791741958e+01 0.0000000000000000e+00 0.0000000000000000e+00 0.0000000000000000e+00 0.0000000000000000e+00  2.7690139165015150e+01 -1.4063463169186951e+01 0.0000000000000000e+00 -1.4063463169186951e+01 1.1255285944437613e+01 0.0000000000000000e+00 0.0000000000000000e+00 0.0000000000000000e+00 0.0000000000000000e+00  4.2126585663853035e+01 2.1535409517974518e+01 0.0000000000000000e+00 2.1535409517974518e+01 -1.1713950098616182e+00 0.0000000000000000e+00 0.0000000000000000e+00 0.0000000000000000e+00 0.0000000000000000e+00  5.9448787581181556e+01 2.7921451004325817e+01 0.0000000000000000e+00 2.7921451004325817e+01 -2.0316539608626567e+01 0.0000000000000000e+00 0.0000000000000000e+00 0.0000000000000000e+00 0.0000000000000000e+00  2.1347662662759717e+01 1.4769036209431976e+01 0.0000000000000000e+00 1.4769036209431976e+01 1.7088721337054757e+01 0.0000000000000000e+00 0.0000000000000000e+00 0.0000000000000000e+00 0.0000000000000000e+00  -1.5179246583092036e+01 1.1816073456039950e+01 0.0000000000000000e+00 1.1816073456039950e+01 5.4143302796679713e+01 0.0000000000000000e+00 0.0000000000000000e+00 0.0000000000000000e+00 0.0000000000000000e+00  -3.0243004918686029e+01 3.0955567161499349e+01 0.0000000000000000e+00 3.0955567161499349e+01 7.3998043723602308e+01 0.0000000000000000e+00 0.0000000000000000e+00 0.0000000000000000e+00 0.0000000000000000e+00  -2.4635172717807055e+01 4.4148030176529957e+01 0.0000000000000000e+00 4.4148030176529957e+01 6.8278396635083581e+01 0.0000000000000000e+00 0.0000000000000000e+00 0.0000000000000000e+00 0.0000000000000000e+00  3.8965167166771724e+00 3.4815401044692948e+01 0.0000000000000000e+00 3.4815401044692948e+01 4.4539728538435234e+01 0.0000000000000000e+00 0.0000000000000000e+00 0.0000000000000000e+00 0.0000000000000000e+00  8.5155618158387760e+00 8.1210645100888641e+00 0.0000000000000000e+00 8.1210645100888641e+00 4.4070210449106774e+01 0.0000000000000000e+00 0.0000000000000000e+00 0.0000000000000000e+00 0.0000000000000000e+00  2.5139341688892490e+01 -1.7801444938803459e+00 0.0000000000000000e+00 -1.7801444938803459e+00 2.2109272236253442e+01 0.0000000000000000e+00 0.0000000000000000e+00 0.0000000000000000e+00 0.0000000000000000e+00  3.1543675558537579e+01 1.1389328810057480e+01 0.0000000000000000e+00 1.1389328810057480e+01 1.8308465193294161e+01 0.0000000000000000e+00 0.0000000000000000e+00 0.0000000000000000e+00 0.0000000000000000e+00  3.9735627312432335e+01 2.1010278159577670e+01 0.0000000000000000e+00 2.1010278159577670e+01 3.9653731295105592e+00 0.0000000000000000e+00 0.0000000000000000e+00 0.0000000000000000e+00 0.0000000000000000e+00  3.1131934309113056e+01 1.4148162445213631e+01 0.0000000000000000e+00 1.4148162445213631e+01 9.7368143419506428e+00 0.0000000000000000e+00 0.0000000000000000e+00 0.0000000000000000e+00 0.0000000000000000e+00  5.9133715851278268e+00 4.3843918392972281e+00 0.0000000000000000e+00 4.3843918392972281e+00 3.5282863062968609e+01 0.0000000000000000e+00 0.0000000000000000e+00 0.0000000000000000e+00 0.0000000000000000e+00  -1.6180649030506267e+01 8.4045737446583129e+00 0.0000000000000000e+00 8.4045737446583129e+00 6.3220567099280586e+01 0.0000000000000000e+00 0.0000000000000000e+00 0.0000000000000000e+00 0.0000000000000000e+00  -1.5165424038023202e+01 5.1092222066754074e+00 0.0000000000000000e+00 5.1092222066754074e+00 4.9841262906766630e+01 0.0000000000000000e+00 0.0000000000000000e+00 0.0000000000000000e+00 0.0000000000000000e+00  -7.0585447239068830e-02 -1.2675272997435318e+01 0.0000000000000000e+00 -1.2675272997435318e+01 3.4533572917533640e+01 0.0000000000000000e+00 0.0000000000000000e+00 0.0000000000000000e+00 0.0000000000000000e+00  2.5835921626189403e+01 -3.8590877252837075e+01 0.0000000000000000e+00 -3.8590877252837075e+01 6.2187769176468644e+00 0.0000000000000000e+00 0.0000000000000000e+00 0.0000000000000000e+00 0.0000000000000000e+00  2.4626204637692798e+01 -2.7859497075837812e+01 0.0000000000000000e+00 -2.7859497075837812e+01 8.2602473467987352e+00 0.0000000000000000e+00 0.0000000000000000e+00 0.0000000000000000e+00 0.0000000000000000e+00  4.6242927653019670e+01 1.4714460407021015e+01 0.0000000000000000e+00 1.4714460407021015e+01 -9.0222511193925587e+00 0.0000000000000000e+00 0.0000000000000000e+00 0.0000000000000000e+00 0.0000000000000000e+00  4.5257078835516850e+01 1.9963098915765293e+01 0.0000000000000000e+00 1.9963098915765293e+01 -1.1772323592978582e+01 0.0000000000000000e+00 0.0000000000000000e+00 0.0000000000000000e+00 0.0000000000000000e+00  5.7195257832970285e+01 1.7074563459624638e+01 0.0000000000000000e+00 1.7074563459624638e+01 -1.2406504519750987e+01 0.0000000000000000e+00 0.0000000000000000e+00 0.0000000000000000e+00 0.0000000000000000e+00  2.3610558293695739e+01 1.5876783663260653e+01 0.0000000000000000e+00 1.5876783663260653e+01 1.2154011821230256e+01 0.0000000000000000e+00 0.0000000000000000e+00 0.0000000000000000e+00 0.0000000000000000e+00  3.1001500410303846e+00 6.1982790087672122e+00 0.0000000000000000e+00 6.1982790087672122e+00 3.3354473566569261e+01 0.0000000000000000e+00 0.0000000000000000e+00 0.0000000000000000e+00 0.0000000000000000e+00  1.4104041129992790e+01 -1.9735286573219067e+01 0.0000000000000000e+00 -1.9735286573219064e+01 2.1776567460513409e+01 0.0000000000000000e+00 0.0000000000000000e+00 0.0000000000000000e+00 0.0000000000000000e+00  3.3468866860886408e+01 -4.0505002547365919e+01 0.0000000000000000e+00 -4.0505002547365919e+01 3.3352992944303925e+00 0.0000000000000000e+00 0.0000000000000000e+00 0.0000000000000000e+00 0.0000000000000000e+00  2.5658049142582577e+01 -1.4832622933838822e+01 0.0000000000000000e+00 -1.4832622933838822e+01 7.0992820306806674e+00 0.0000000000000000e+00 0.0000000000000000e+00 0.0000000000000000e+00 0.0000000000000000e+00  4.0535789948014092e+01 1.7902325341168972e+01 0.0000000000000000e+00 1.7902325341168972e+01 -2.7947802815625864e+00 0.0000000000000000e+00 0.0000000000000000e+00 0.0000000000000000e+00 0.0000000000000000e+00  6.7057813067099829e+01 3.2845410783490856e+01 0.0000000000000000e+00 3.2845410783490856e+01 -3.6553036093484678e+01 0.0000000000000000e+00 0.0000000000000000e+00 0.0000000000000000e+00 0.0000000000000000e+00  4.6291233001668466e+01 5.5870534909990219e+00 0.0000000000000000e+00 5.5870534909990219e+00 -7.0776505988418474e+00 0.0000000000000000e+00 0.0000000000000000e+00 0.0000000000000000e+00 0.0000000000000000e+00  2.7409430852447549e+01 5.5521895309762517e+00 0.0000000000000000e+00 5.5521895309762517e+00 1.3016390031343493e+01 0.0000000000000000e+00 0.0000000000000000e+00 0.0000000000000000e+00 0.0000000000000000e+00  2.2551596256238472e+01 -1.0767723367418919e-01 0.0000000000000000e+00 -1.0767723367418919e-01 1.9550292920906475e+01 0.0000000000000000e+00 0.0000000000000000e+00 0.0000000000000000e+00 0.0000000000000000e+00  1.4886168587564923e+01 -1.9676815367025220e+00 0.0000000000000000e+00 -1.9676815367025220e+00 2.1917597211084029e+01 0.0000000000000000e+00 0.0000000000000000e+00 0.0000000000000000e+00 0.0000000000000000e+00  3.6493516305974588e+01 -1.3654674914714029e+01 0.0000000000000000e+00 -1.3654674914714029e+01 -2.5600428774244460e-01 0.0000000000000000e+00 0.0000000000000000e+00 0.0000000000000000e+00 0.0000000000000000e+00  5.6068479090707235e+01 -2.3208697961249928e+01 0.0000000000000000e+00 -2.3208697961249928e+01 -2.0385243953832397e+01 0.0000000000000000e+00 0.0000000000000000e+00 0.0000000000000000e+00 0.0000000000000000e+00  4.5272988120195805e+01 -3.2460624851193323e+01 0.0000000000000000e+00 -3.2460624851193323e+01 -1.8094729739643249e+01 0.0000000000000000e+00 0.0000000000000000e+00 0.0000000000000000e+00 0.0000000000000000e+00  2.6792495498632039e+01 6.6167742075399465e+00 0.0000000000000000e+00 6.6167742075399465e+00 4.0632932861054771e-01 0.0000000000000000e+00 0.0000000000000000e+00 0.0000000000000000e+00 0.0000000000000000e+00  1.8393069620891247e+01 2.9079527522806085e+01 0.0000000000000000e+00 2.9079527522806085e+01 1.5968468512406952e+01 0.0000000000000000e+00 0.0000000000000000e+00 0.0000000000000000e+00 0.0000000000000000e+00  1.0992886370802299e+00 1.2034188238762059e+01 0.0000000000000000e+00 1.2034188238762059e+01 1.9847603001173450e+01 0.0000000000000000e+00 0.0000000000000000e+00 0.0000000000000000e+00 0.0000000000000000e+00  -1.7215451694295385e+01 -1.8901482919745845e+01 0.0000000000000000e+00 -1.8901482919745845e+01 3.8752049816460385e+01 0.0000000000000000e+00 0.0000000000000000e+00 0.0000000000000000e+00 0.0000000000000000e+00  -2.6743351538940548e+01 -1.6316375308379662e+01 0.0000000000000000e+00 -1.6316375308379662e+01 4.7259795029838344e+01 0.0000000000000000e+00 0.0000000000000000e+00 0.0000000000000000e+00 0.0000000000000000e+00  7.6427949092687681e+00 -7.6036763293117193e+00 0.0000000000000000e+00 -7.6036763293117193e+00 1.4397281962802612e+01 0.0000000000000000e+00 0.0000000000000000e+00 0.0000000000000000e+00 0.0000000000000000e+00  2.9066470227652346e+01 -1.3571102991740949e+01 0.0000000000000000e+00 -1.3571102991740950e+01 -1.5155937830197843e+00 0.0000000000000000e+00 0.0000000000000000e+00 0.0000000000000000e+00 0.0000000000000000e+00  4.8160058844372386e+01 -3.4286219768972146e+01 0.0000000000000000e+00 -3.4286219768972146e+01 -2.5342146590770106e+01 0.0000000000000000e+00 0.0000000000000000e+00 0.0000000000000000e+00 0.0000000000000000e+00  3.7052130403501316e+01 -3.7431750697171665e+01 0.0000000000000000e+00 -3.7431750697171665e+01 -2.1414755158377289e+01 0.0000000000000000e+00 0.0000000000000000e+00 0.0000000000000000e+00 0.0000000000000000e+00  1.8772217883326846e+01 -5.0642881889461719e+00 0.0000000000000000e+00 -5.0642881889461719e+00 8.7178211167899944e-01 0.0000000000000000e+00 0.0000000000000000e+00 0.0000000000000000e+00 0.0000000000000000e+00  3.4010418302650303e+00 -4.6642180725241789e-01 0.0000000000000000e+00 -4.6642180725241789e-01 1.8025733974850194e+01 0.0000000000000000e+00 0.0000000000000000e+00 0.0000000000000000e+00 0.0000000000000000e+00  -3.8847626792319588e+01 -2.5609944541321315e+01 0.0000000000000000e+00 -2.5609944541321315e+01 5.9335167393785824e+01 0.0000000000000000e+00 0.0000000000000000e+00 0.0000000000000000e+00 0.0000000000000000e+00  -9.3831645343401860e+01 -3.7571133532186792e+01 0.0000000000000000e+00 -3.7571133532186792e+01 1.1670734326259152e+02 0.0000000000000000e+00 0.0000000000000000e+00 0.0000000000000000e+00 0.0000000000000000e+00  -1.2740748393103692e+02 -9.3402399705179064e+00 0.0000000000000000e+00 -9.3402399705179064e+00 1.1649657635792639e+02 0.0000000000000000e+00 0.0000000000000000e+00 0.0000000000000000e+00 0.0000000000000000e+00  -6.7572910757940406e+01 2.7040792000229889e+01 0.0000000000000000e+00 2.7040792000229889e+01 6.2571708206256808e+01 0.0000000000000000e+00 0.0000000000000000e+00 0.0000000000000000e+00 0.0000000000000000e+00  -2.1743153039112379e+01 2.1330207561756421e+01 0.0000000000000000e+00 2.1330207561756421e+01 2.7659286547298429e+01 0.0000000000000000e+00 0.0000000000000000e+00 0.0000000000000000e+00 0.0000000000000000e+00  -4.5322210096661895e+00 3.7401587209052676e+00 0.0000000000000000e+00 3.7401587209052676e+00 8.9854369310636759e+00 0.0000000000000000e+00 0.0000000000000000e+00 0.0000000000000000e+00 0.0000000000000000e+00  5.4207121362535853e+00 1.2578455368834098e+00 0.0000000000000000e+00 1.2578455368834098e+00 2.6892737837785750e+00 0.0000000000000000e+00 0.0000000000000000e+00 0.0000000000000000e+00 0.0000000000000000e+00  6.0394481225038888e+01 -9.7710032472187351e+01 0.0000000000000000e+00 -9.7710032472187351e+01 9.2460425292200256e+01 0.0000000000000000e+00 0.0000000000000000e+00 0.0000000000000000e+00 0.0000000000000000e+00  1.7042409657416232e+02 9.9916918110294347e+01 0.0000000000000000e+00 9.9916918110294347e+01 3.1775548791293783e+01 0.0000000000000000e+00 0.0000000000000000e+00 0.0000000000000000e+00 0.0000000000000000e+00  5.8725019292591591e+00 4.1349255838078520e+01 0.0000000000000000e+00 4.1349255838078520e+01 1.6009639327223887e+01 0.0000000000000000e+00 0.0000000000000000e+00 0.0000000000000000e+00 0.0000000000000000e+00  2.9280372493087121e+01 -6.7192912809328886e+00 0.0000000000000000e+00 -6.7192912809328886e+00 2.7784139847766983e+01 0.0000000000000000e+00 0.0000000000000000e+00 0.0000000000000000e+00 0.0000000000000000e+00  9.1861271589710203e+00 -1.1432595400674137e+02 0.0000000000000000e+00 -1.1432595400674137e+02 -6.5954809852412568e+00 0.0000000000000000e+00 0.0000000000000000e+00 0.0000000000000000e+00 0.0000000000000000e+00  -7.8102012184250951e+00 1.1399044189690786e+00 0.0000000000000000e+00 1.1399044189690786e+00 -1.9714628468260436e+01 0.0000000000000000e+00 0.0000000000000000e+00 0.0000000000000000e+00 0.0000000000000000e+00  1.7736893348671540e+01 4.2473915270291663e+01 0.0000000000000000e+00 4.2473915270291663e+01 1.7134488279264808e+01 0.0000000000000000e+00 0.0000000000000000e+00 0.0000000000000000e+00 0.0000000000000000e+00  7.3370807513368803e+01 -1.0030735185078444e+02 0.0000000000000000e+00 -1.0030735185078444e+02 7.9889506173328806e-01 0.0000000000000000e+00 0.0000000000000000e+00 0.0000000000000000e+00 0.0000000000000000e+00  2.5719508683378482e+01 3.9857396909062267e+01 0.0000000000000000e+00 3.9857396909062267e+01 1.6324123677468446e+01 0.0000000000000000e+00 0.0000000000000000e+00 0.0000000000000000e+00 0.0000000000000000e+00  2.5883124701871804e+01 2.2641558337352336e+01 0.0000000000000000e+00 2.2641558337352336e+01 3.0237641797407424e+01 0.0000000000000000e+00 0.0000000000000000e+00 0.0000000000000000e+00 0.0000000000000000e+00  1.7037787114363564e+01 4.4207265974352650e-01 0.0000000000000000e+00 4.4207265974352650e-01 3.2577432369605233e+01 0.0000000000000000e+00 0.0000000000000000e+00 0.0000000000000000e+00 0.0000000000000000e+00  3.2813165947138025e+01 3.7769042617809991e+00 0.0000000000000000e+00 3.7769042617809991e+00 2.8971295496712248e+01 0.0000000000000000e+00 0.0000000000000000e+00 0.0000000000000000e+00 0.0000000000000000e+0