<?xml version="1.0"?>
<VTKFile type="UnstructuredGrid"  version="0.1"  >
<UnstructuredGrid>
<Piece  NumberOfPoints="4835" NumberOfCells="9296">
<Points>
<DataArray  type="Float64"  NumberOfComponents="3"  format="ascii">0 1.5 0  -0 0.1307014797437256 0  0.01134725726173103 0.1483581566929452 0  0.04283342385313163 0.181379897845022 0  0.08000000000000007 0.2078460969082653 0  0.1215036888038188 0.2268001964915204 0  0.1658444388144116 0.2375571460514239 0  0.2114196597976982 0.2397281614039219 0  0.2565821445222626 0.23323477639765 0  0.2996996031204527 0.2183116788850844 0  0.3392136582970876 0.1954982284920806 0  0.3736961691452169 0.1656189627557069 0  0.4019008478794835 0.1297537961893434 0  0.4059948616314525 0.1218125174167552 0  0.4254856317806581 0.1498156710261111 0  0.4592156240140376 0.1818784194956707 0  0.498709345141744 0.2064950441012706 0  0.5423499175804942 0.222657737339227 0  0.588350691167096 0.2297047966493422 0  0.6348283888260526 0.2273477145954656 0  0.6798802081543086 0.2156829903938285 0  0.7216617223752013 0.1951881792237927 0  0.7584623913874079 0.1667023410626976 0  0.7879811633353602 0.1323170874919288 0  0.8152477706948351 0.1684239109116393 0  0.849341340905186 0.1995043068200599 0  0.8885654110558655 0.2237908228387656 0  0.9315842524819793 0.2404564107932048 0  0.9769329101341745 0.2489335440737586 0  1.023067089865825 0.2489335440737586 0  1.068415747518021 0.2404564107932048 0  1.111434588944135 0.2237908228387656 0  1.150658659094814 0.1995043068200599 0  1.184752229305165 0.1684239109116393 0  1.212554283932403 0.1316080407193389 0  1.233118057351089 0.09031041654678823 0  1.245743274920975 0.04593737945414259 0  1.25 0 0  1.36108673858246 0 0  1.36108673858246 0.02281345039300389 0  1.369721686332521 0.06761581364194322 0  1.386679492322819 0.1099743652145785 0  1.411347257261731 0.1483581566929452 0  1.442833423853132 0.181379897845022 0  1.48 0.2078460969082653 0  1.521503688803819 0.2268001964915204 0  1.565844438814412 0.2375571460514239 0  1.611419659797698 0.2397281614039219 0  1.656582144522263 0.23323477639765 0  1.699699603120453 0.2183116788850844 0  1.739213658297088 0.1954982284920806 0  1.765497292517293 0.1727233297951148 0  1.79 0.1905255888325765 0  1.832016261237511 0.2092324335849338 0  1.877003738081116 0.2187948169810202 0  1.922996261918884 0.2187948169810201 0  1.967983738762488 0.2092324335849338 0  2.01 0.1905255888325765 0  2.047208733398949 0.1634918616050267 0  2.077983738762488 0.1293127555043441 0  2.087980221556173 0.1119983394086949 0  2.111347257261731 0.1483581566929452 0  2.142833423853131 0.181379897845022 0  2.18 0.2078460969082653 0  2.221503688803819 0.2268001964915204 0  2.265844438814411 0.2375571460514239 0  2.311419659797698 0.2397281614039219 0  2.356582144522263 0.23323477639765 0  2.399699603120453 0.2183116788850844 0  2.439213658297088 0.1954982284920806 0  2.457172785224357 0.179936556425434 0  2.459215624014038 0.1818784194956707 0  2.498709345141744 0.2064950441012706 0  2.542349917580494 0.222657737339227 0  2.588350691167096 0.2297047966493422 0  2.634828388826053 0.2273477145954656 0  2.679880208154309 0.2156829903938285 0  2.721661722375202 0.1951881792237927 0  2.758462391387408 0.1667023410626976 0  2.788775591477674 0.1313916894718022 0  2.811360296672653 0.09070184667606328 0  2.825291886488074 0.04629865962039181 0  2.83 0 0  3 0 0  3 1.5 0  0 0.8023345134541607 0  0.4157402467060553 0.1358140942214332 0  3 0.75 0  1.5 1.5 0  0 0.4665179965989431 0  3 0.375 0  0 0.2986097381713344 0  0 0.21465560895753 0  0 0.1726785443506278 0  0 0.1516900120471767 0  2.25 1.5 0  0.75 1.5 0  1.169989811679434 0.9093651732355621 0  1.875 0.9142758100523694 0  0.5779365036100435 0.9330077223331824 0  2.43246936225428 0.7976868957014953 0  3 1.125 0  2.625 1.5 0  0.375 1.5 0  0 1.15116725672708 0  1.449253057879235 0.6213873587688492 0  0.7697361971202799 0.5943793911944208 0  0.3630076616442724 0.6080350564914153 0  2.069570984533324 0.5812833454367354 0  1.875 1.5 0  1.125 1.5 0  2.4375 1.173854331507092 0  0.8831005780031504 1.150004411874495 0  1.52207987625039 0.9714054497350916 0  2.0625 1.207137905026185 0  1.107793318688589 0.5766433232347881 0  1.3125 1.2274095306559 0  2.729985961523573 0.9375 0  2.711750443384031 0.5625 0  1.6875 1.243073622519403 0  1.760894209596057 0.6242614373612321 0  0.2643049832376852 0.9767508850906206 0  0.4566194854768236 1.209399638766609 0  2.728217267602858 1.228217267602858 0  2.374499195658668 0.518153287180279 0  2.169650674143702 0.9320836008992801 0  0.8550719231757007 0.8663457099410541 0  1.303567858855371 0.4078893824383345 0  0.2133194436665546 1.297827371069245 0  0.5308017499037517 0.4517023193912283 0  1.083077097725883 1.270382833575872 0  0.6830238102386342 1.274223132985906 0  2.250983943328481 0.6895458766515071 0  1.81089184968521 0.4192208869708923 0  1.679274712803154 0.8238291020339636 0  1.5785148524717 0.4510287526682343 0  0 0.6344262550265519 0  0.2138866804674432 0.765685327335986 0  0.5683532856219899 0.6602211278972628 0  0.9375 1.5 0  0.93201471049342 0.4568525359126817 0  1.262687644113192 0.7198627504483751 0  0.4154000952342595 0.8069446327163143 0  0.2139559556345817 0.4540330649264536 0  2.06977986811652 0.3813318272583126 0  0.7200651071201811 0.4061566188086219 0  1.932157822851692 0.7243325602448901 0  0.9441947922338874 0.689010158618046 0  3 1.3125 0  2.8125 1.5 0  0.5625 1.5 0  1.865575888969794 1.126762336039809 0  1.691368628814911 1.054521333692312 0  2.243682835689564 1.11932177110543 0  2.294933652681559 1.30886281903233 0  2.4375 1.5 0  2.385653526545621 0.9864303388879195 0  2.560603055863368 1.320052196970997 0  2.605098352881707 1.08210421072607 0  2.797310903081369 0.7462827406561878 0  1.497248537655819 1.30111187331848 0  1.6875 1.5 0  3 0.5625 0  3 0.9375 0  1.3125 1.5 0  2.0625 1.5 0  3 0.1875 0  0.1875 1.5 0  0.9978323986844071 0.9954535003819682 0  0.7455388243606953 1.020382929522352 0  1.904625246064701 1.312514164033404 0  1.15622562020362 1.097022204090454 0  1.332774827327096 1.015638362851981 0  2.617489052932561 0.7904306825848915 0  2.798834931624827 0.3810601956207291 0  2.518702939674024 0.6340258449062608 0  1.42862153170688 0.8082655083169574 0  2.016051725629557 1.02698392558818 0  2.557580898838836 0.4303899543284488 0  0.9143579924460792 1.324371521638632 0  0.6907201107072946 0.792483910827579 0  0 1.32558362836354 0  0 0.9767508850906206 0  0.6046140448732628 1.120294499938289 0  1.129353874055204 0.4037183319394277 0  2.240578803971554 0.4086758810341738 0  1.544887400155686 1.138911442832316 0  2.828734594747712 1.083464790593587 0  0.401358428169992 0.3487630281226344 0  0.1737226743516005 1.126953194380642 0  1.219293394173851 1.36370476532795 0  2.095593203128485 0.7438044944874065 0  1.099947866649755 0.7404984974094087 0  0.4225987016856009 0.9654760294046846 0  1.265404984472296 0.5615537191035901 0  1.908099381276504 0.55154028811489 0  1.605233217264331 0.6055204891939014 0  0.2070403235706232 0.6098576665994301 0  0.46875 1.369568887475175 0  2.529999076220762 0.9220559311443081 0  0.3296306516835505 1.118561581461605 0  2.136891098712708 1.353568952513092 0  0.1250262355603041 0.8895426992723907 0  2.286468869522623 0.8363516131379349 0  2.03024950667879 0.8782110935537075 0  2.71875 1.380113023166798 0  2.851157149000174 1.312122703709591 0  2.855875221692015 0.6072101925796368 0  1.766081959310164 1.371536811259701 0  2.417227117459742 0.3724437385102629 0  1.365276810157265 1.363519047380362 0  1.451310499971155 0.3640091006357036 0  2.211012611580202 0.5503989260541815 0  1.306789156675977 0.2570819477057019 0  2.872418607762505 0.256220469598872 0  2.896902016958361 0.84375 0  0.6487095286926469 0.5256523827174592 0  1.021477811485347 1.13286821063065 0  1.622350554793597 1.371881362989231 0  1.297557547403682 0.854343314165958 0  0.5529398034156436 0.7974238691464364 0  1.000783388185185 0.848708117631217 0  0.8152141294141361 0.735251676415229 0  2.383386472338196 0.654760318649699 0  1.031024064601143 1.39833771698851 0  1.812756223744312 0.7919737740986065 0  2.902150447032281 0.46875 0  1.558478314279628 0.7430881247578319 0  2.428095049619715 1.306700780290589 0  0.3309906154406318 1.369459454266083 0  0.117457385934373 0.361895434578648 0  0.4016309285334721 0.4812757168525422 0  1.933925005895449 0.3564723397117748 0  0.7479761182598068 1.155601287121883 0  0.09711831342126455 1.23837544254531 0  1.384025258268523 0.5094422387329146 0  2.188092881729461 1.235445092789212 0  0.116614462422195 1.388212202394539 0  0.5993432477835932 1.374610260003488 0  0.8731519049868882 1.022757560732678 0  0.1109021857268646 0.5275252102504697 0  1.703820060431276 0.5017282682884084 0  0.1118224159219883 0.6921053365242938 0  0.3267069786561488 1.244030051070764 0  2.878127312164905 0.9679608000003684 0  1.408346090782441 1.129729637108486 0  0.8047358880839842 0.3153623688883521 0  2.6405066654848 0.6664933064830099 0  0.4805702216488833 1.081724858267193 0  2.668084598222495 0.3562155878484895 0  2.138121375887776 1.052804865904559 0  1.96875 1.5 0  0.4891907154726056 0.5668366043293971 0  0.1473863332166031 1.0086557402922 0  2.558860649578938 1.196592162044302 0  1.717555244640741 0.3396535732296396 0  0.84375 1.5 0  0.7839942032523698 1.367093097528149 0  3 1.40625 0  2.484124862262918 1.060073596740424 0  3 1.21875 0  2.34375 1.5 0  0.8196209764267471 1.251369088398821 0  2.023202270335131 1.319214170177879 0  0.5721208504581607 1.233781127425821 0  1.984735816620384 0.462442873488178 0  0.6955333931194808 0.9118686683832042 0  1.19123464962554 1.213906677421382 0  0.8929803638185398 0.5752987850534633 0  1.566736823664244 0.8614646887466211 0  1.808684073906441 1.017786844668201 0  1.719105195888173 0.9374041347540488 0  1.671476674178274 0.70476362875428 0  1.218260709491531 0.330629071498573 0  2.839021519587611 1.19788439058923 0  0.5170070740021471 0.3361933937254621 0  1.393527188254162 0.91788143976
[...]
<PointData  Tensors="f_682"> 
<DataArray  type="Float64"  Name="f_682"  NumberOfComponents="9" format="ascii">-6.3727253403306454e+00 2.3171768690405217e-01 0.0000000000000000e+00 2.3171768690405217e-01 -1.6923375445428000e+01 0.0000000000000000e+00 0.0000000000000000e+00 0.0000000000000000e+00 0.0000000000000000e+00  2.8098745854085138e+01 -6.1303625162676689e-01 0.0000000000000000e+00 -6.1303625162676689e-01 2.7645538898277085e+01 0.0000000000000000e+00 0.0000000000000000e+00 0.0000000000000000e+00 0.0000000000000000e+00  2.8409796879343720e+01 9.5859891674337117e-02 0.0000000000000000e+00 9.5859891674337117e-02 2.2829750445896313e+01 0.0000000000000000e+00 0.0000000000000000e+00 0.0000000000000000e+00 0.0000000000000000e+00  4.5277020756255844e+01 -1.3546114901208831e+01 0.0000000000000000e+00 -1.3546114901208831e+01 3.3587964543631728e+00 0.0000000000000000e+00 0.0000000000000000e+00 0.0000000000000000e+00 0.0000000000000000e+00  7.6951706330678945e+01 -3.4315839580563726e+01 0.0000000000000000e+00 -3.4315839580563726e+01 -2.5344882684748995e+01 0.0000000000000000e+00 0.0000000000000000e+00 0.0000000000000000e+00 0.0000000000000000e+00  6.7049251227568149e+01 -3.5169330862986968e+01 0.0000000000000000e+00 -3.5169330862986968e+01 -2.6905127013306078e+01 0.0000000000000000e+00 0.0000000000000000e+00 0.0000000000000000e+00 0.0000000000000000e+00  7.1454987568270782e+00 1.2560962091017698e+01 0.0000000000000000e+00 1.2560962091017698e+01 2.2514524222329936e+01 0.0000000000000000e+00 0.0000000000000000e+00 0.0000000000000000e+00 0.0000000000000000e+00  2.5917980151063755e+01 8.0601695568284967e+01 0.0000000000000000e+00 8.0601695568284967e+01 1.3730664670137276e+01 0.0000000000000000e+00 0.0000000000000000e+00 0.0000000000000000e+00 0.0000000000000000e+00  3.4896158500124145e+01 4.0571208992380370e+01 0.0000000000000000e+00 4.0571208992380370e+01 1.2122476864710892e+01 0.0000000000000000e+00 0.0000000000000000e+00 0.0000000000000000e+00 0.0000000000000000e+00  -1.9285969317473025e+01 -1.7746763982894278e+00 0.0000000000000000e+00 -1.7746763982894278e+00 6.7641141589748798e+01 0.0000000000000000e+00 0.0000000000000000e+00 0.0000000000000000e+00 0.0000000000000000e+00  -5.0028992969181523e+01 -1.2157246035055062e+01 0.0000000000000000e+00 -1.2157246035055062e+01 9.1046689541661081e+01 0.0000000000000000e+00 0.0000000000000000e+00 0.0000000000000000e+00 0.0000000000000000e+00  -4.4882152447165424e+01 -8.0991613493575443e+00 0.0000000000000000e+00 -8.0991613493575443e+00 8.4682252813520833e+01 0.0000000000000000e+00 0.0000000000000000e+00 0.0000000000000000e+00 0.0000000000000000e+00  2.9428271082185571e+01 5.4364204656607695e+00 0.0000000000000000e+00 5.4364204656607695e+00 2.7852802091136542e+01 0.0000000000000000e+00 0.0000000000000000e+00 0.0000000000000000e+00 0.0000000000000000e+00  2.7867821275358690e+01 -5.0374239333462727e+00 0.0000000000000000e+00 -5.0374239333462727e+00 2.3943512775980597e+01 0.0000000000000000e+00 0.0000000000000000e+00 0.0000000000000000e+00 0.0000000000000000e+00  5.1847200764926512e+01 -3.3756618667532625e+00 0.0000000000000000e+00 -3.3756618667532625e+00 -8.6923532297124169e+00 0.0000000000000000e+00 0.0000000000000000e+00 0.0000000000000000e+00 0.0000000000000000e+00  4.8658924340095616e+01 -9.3788986461215966e+00 0.0000000000000000e+00 -9.3788986461215966e+00 -7.5479834550126856e+00 0.0000000000000000e+00 0.0000000000000000e+00 0.0000000000000000e+00 0.0000000000000000e+00  -5.2155104119931908e+00 3.2137756019731079e+01 0.0000000000000000e+00 3.2137756019731079e+01 4.8958797603340059e+01 0.0000000000000000e+00 0.0000000000000000e+00 0.0000000000000000e+00 0.0000000000000000e+00  -5.7810019791258096e+00 6.2838367122711190e+01 0.0000000000000000e+00 6.2838367122711190e+01 6.0238661598164683e+01 0.0000000000000000e+00 0.0000000000000000e+00 0.0000000000000000e+00 0.0000000000000000e+00  1.1661560236912109e+01 2.2358763958836896e+01 0.0000000000000000e+00 2.2358763958836896e+01 4.4562107114560312e+01 0.0000000000000000e+00 0.0000000000000000e+00 0.0000000000000000e+00 0.0000000000000000e+00  9.4808278350552975e+00 -5.1738804284882306e+01 0.0000000000000000e+00 -5.1738804284882306e+01 4.5124629490225459e+01 0.0000000000000000e+00 0.0000000000000000e+00 0.0000000000000000e+00 0.0000000000000000e+00  -2.4544969933001454e+01 -4.1563305876467076e+01 0.0000000000000000e+00 -4.1563305876467076e+01 5.7727806736403103e+01 0.0000000000000000e+00 0.0000000000000000e+00 0.0000000000000000e+00 0.0000000000000000e+00  2.8155610740169028e+01 -1.0650051939591796e+01 0.0000000000000000e+00 -1.0650051939591796e+01 1.6207389043545774e+01 0.0000000000000000e+00 0.0000000000000000e+00 0.0000000000000000e+00 0.0000000000000000e+00  5.6510008220163961e+01 8.6733109779833684e-01 0.0000000000000000e+00 8.6733109779833684e-01 -1.3803485251982483e+01 0.0000000000000000e+00 0.0000000000000000e+00 0.0000000000000000e+00 0.0000000000000000e+00  2.0730859161633131e+01 2.4410818730906731e+00 0.0000000000000000e+00 2.4410818730906731e+00 2.3417807159276435e+01 0.0000000000000000e+00 0.0000000000000000e+00 0.0000000000000000e+00 0.0000000000000000e+00  -4.3640387969253247e+01 2.9016398404953656e+00 0.0000000000000000e+00 2.9016398404953656e+00 8.7308935175646170e+01 0.0000000000000000e+00 0.0000000000000000e+00 0.0000000000000000e+00 0.0000000000000000e+00  -6.3171430730501967e+01 1.9926788710155282e+01 0.0000000000000000e+00 1.9926788710155282e+01 1.0341241726582797e+02 0.0000000000000000e+00 0.0000000000000000e+00 0.0000000000000000e+00 0.0000000000000000e+00  -2.4843123519404685e+01 2.1111371800925003e+01 0.0000000000000000e+00 2.1111371800925003e+01 7.1736327873826369e+01 0.0000000000000000e+00 0.0000000000000000e+00 0.0000000000000000e+00 0.0000000000000000e+00  7.5728391916356603e+00 -1.3108504422373315e+01 0.0000000000000000e+00 -1.3108504422373315e+01 2.9865778487014385e+01 0.0000000000000000e+00 0.0000000000000000e+00 0.0000000000000000e+00 0.0000000000000000e+00  2.8413039975738791e+01 -5.4699934286734077e+01 0.0000000000000000e+00 -5.4699934286734077e+01 1.5045180445316474e+01 0.0000000000000000e+00 0.0000000000000000e+00 0.0000000000000000e+00 0.0000000000000000e+00  2.9684374647841949e+01 -2.3254047627760936e+01 0.0000000000000000e+00 -2.3254047627760936e+01 8.9164836945751649e+00 0.0000000000000000e+00 0.0000000000000000e+00 0.0000000000000000e+00 0.0000000000000000e+00  5.1700187242132714e+01 3.4545410492205427e+01 0.0000000000000000e+00 3.4545410492205427e+01 -1.0181927768353304e+01 0.0000000000000000e+00 0.0000000000000000e+00 0.0000000000000000e+00 0.0000000000000000e+00  7.6578062987992070e+01 4.2291080489940661e+01 0.0000000000000000e+00 4.2291080489940661e+01 -3.9738518010834603e+01 0.0000000000000000e+00 0.0000000000000000e+00 0.0000000000000000e+00 0.0000000000000000e+00  2.3004621332308851e+01 2.0758385720601332e+01 0.0000000000000000e+00 2.0758385720601332e+01 1.6886454213959286e+01 0.0000000000000000e+00 0.0000000000000000e+00 0.0000000000000000e+00 0.0000000000000000e+00  -3.5895508063835436e+01 1.7669940770923461e+01 0.0000000000000000e+00 1.7669940770923461e+01 7.3130719594752250e+01 0.0000000000000000e+00 0.0000000000000000e+00 0.0000000000000000e+00 0.0000000000000000e+00  -6.0963560519709638e+01 4.8594739093271130e+01 0.0000000000000000e+00 4.8594739093271130e+01 1.0227082807625638e+02 0.0000000000000000e+00 0.0000000000000000e+00 0.0000000000000000e+00 0.0000000000000000e+00  -5.1090835039058454e+01 6.8053830237203286e+01 0.0000000000000000e+00 6.8053830237203286e+01 9.3147573224863010e+01 0.0000000000000000e+00 0.0000000000000000e+00 0.0000000000000000e+00 0.0000000000000000e+00  -6.4154924440561389e+00 5.6385840780550552e+01 0.0000000000000000e+00 5.6385840780550552e+01 5.4372485889046644e+01 0.0000000000000000e+00 0.0000000000000000e+00 0.0000000000000000e+00 0.0000000000000000e+00  3.6821308287331131e+00 1.2387501632418140e+01 0.0000000000000000e+00 1.2387501632418140e+01 5.0884157031679841e+01 0.0000000000000000e+00 0.0000000000000000e+00 0.0000000000000000e+00 0.0000000000000000e+00  2.6784534300730058e+01 -3.0529287294038712e+00 0.0000000000000000e+00 -3.0529287294038712e+00 2.0958056823504293e+01 0.0000000000000000e+00 0.0000000000000000e+00 0.0000000000000000e+00 0.0000000000000000e+00  3.5432213479597948e+01 1.6091684715610253e+01 0.0000000000000000e+00 1.6091684715610253e+01 1.4952521647187751e+01 0.0000000000000000e+00 0.0000000000000000e+00 0.0000000000000000e+00 0.0000000000000000e+00  4.7971586822593011e+01 3.2523060456245489e+01 0.0000000000000000e+00 3.2523060456245489e+01 -5.3156805366720770e+00 0.0000000000000000e+00 0.0000000000000000e+00 0.0000000000000000e+00 0.0000000000000000e+00  3.7712068323100489e+01 2.1854426675964728e+01 0.0000000000000000e+00 2.1854426675964728e+01 2.1486776891471462e+00 0.0000000000000000e+00 0.0000000000000000e+00 0.0000000000000000e+00 0.0000000000000000e+00  -2.4869611701890988e+00 6.2180019814889089e+00 0.0000000000000000e+00 6.2180019814889089e+00 4.3746010754523304e+01 0.0000000000000000e+00 0.0000000000000000e+00 0.0000000000000000e+00 0.0000000000000000e+00  -3.9114440720708203e+01 1.2391687147640463e+01 0.0000000000000000e+00 1.2391687147640463e+01 8.6285588209541572e+01 0.0000000000000000e+00 0.0000000000000000e+00 0.0000000000000000e+00 0.0000000000000000e+00  -3.6533606067783190e+01 1.0249724542447764e+01 0.0000000000000000e+00 1.0249724542447764e+01 6.8197366479103749e+01 0.0000000000000000e+00 0.0000000000000000e+00 0.0000000000000000e+00 0.0000000000000000e+00  -6.6083868513854078e+00 -1.6617035386686826e+01 0.0000000000000000e+00 -1.6617035386686826e+01 4.1457262427401588e+01 0.0000000000000000e+00 0.0000000000000000e+00 0.0000000000000000e+00 0.0000000000000000e+00  2.8916548765230218e+01 -5.8501172111576956e+01 0.0000000000000000e+00 -5.8501172111576956e+01 1.4944184692784426e+00 0.0000000000000000e+00 0.0000000000000000e+00 0.0000000000000000e+00 0.0000000000000000e+00  2.7017142260922498e+01 -4.4635299904033459e+01 0.0000000000000000e+00 -4.4635299904033459e+01 6.1342053288168259e+00 0.0000000000000000e+00 0.0000000000000000e+00 0.0000000000000000e+00 0.0000000000000000e+00  5.7755372249221878e+01 2.4347021889088200e+01 0.0000000000000000e+00 2.4347021889088200e+01 -1.9897789515452303e+01 0.0000000000000000e+00 0.0000000000000000e+00 0.0000000000000000e+00 0.0000000000000000e+00  5.8933383167626772e+01 3.8844502160367760e+01 0.0000000000000000e+00 3.8844502160367760e+01 -3.1386982740587236e+01 0.0000000000000000e+00 0.0000000000000000e+00 0.0000000000000000e+00 0.0000000000000000e+00  7.2704939428891890e+01 2.5223223089562765e+01 0.0000000000000000e+00 2.5223223089562765e+01 -2.6153109290187199e+01 0.0000000000000000e+00 0.0000000000000000e+00 0.0000000000000000e+00 0.0000000000000000e+00  2.3285649923140184e+01 1.7827613719045448e+01 0.0000000000000000e+00 1.7827613719045448e+01 1.1044744120529034e+01 0.0000000000000000e+00 0.0000000000000000e+00 0.0000000000000000e+00 0.0000000000000000e+00  -8.1708144841959367e+00 1.1198365386123994e+01 0.0000000000000000e+00 1.1198365386123994e+01 4.1885961030881390e+01 0.0000000000000000e+00 0.0000000000000000e+00 0.0000000000000000e+00 0.0000000000000000e+00  1.2678925871487934e+01 -2.9207194085734763e+01 0.0000000000000000e+00 -2.9207194085734763e+01 2.3156167867514636e+01 0.0000000000000000e+00 0.0000000000000000e+00 0.0000000000000000e+00 0.0000000000000000e+00  3.7692989951619190e+01 -6.1915454604559422e+01 0.0000000000000000e+00 -6.1915454604559422e+01 -1.5665189535972677e+00 0.0000000000000000e+00 0.0000000000000000e+00 0.0000000000000000e+00 0.0000000000000000e+00  2.6550799838642202e+01 -2.3505740491275354e+01 0.0000000000000000e+00 -2.3505740491275354e+01 5.9846544173154879e+00 0.0000000000000000e+00 0.0000000000000000e+00 0.0000000000000000e+00 0.0000000000000000e+00  5.1960860779075141e+01 3.2190387695049139e+01 0.0000000000000000e+00 3.2190387695049139e+01 -1.3502441425069692e+01 0.0000000000000000e+00 0.0000000000000000e+00 0.0000000000000000e+00 0.0000000000000000e+00  8.9175436513827265e+01 4.7534071986090417e+01 0.0000000000000000e+00 4.7534071986090417e+01 -5.8612465556313659e+01 0.0000000000000000e+00 0.0000000000000000e+00 0.0000000000000000e+00 0.0000000000000000e+00  5.6631971874867048e+01 8.4807501468641053e+00 0.0000000000000000e+00 8.4807501468641053e+00 -1.9315381828438518e+01 0.0000000000000000e+00 0.0000000000000000e+00 0.0000000000000000e+00 0.0000000000000000e+00  2.8756871911047565e+01 7.4711238507053599e+00 0.0000000000000000e+00 7.4711238507053599e+00 1.0505314218671762e+01 0.0000000000000000e+00 0.0000000000000000e+00 0.0000000000000000e+00 0.0000000000000000e+00  2.1593476277079709e+01 1.1565562156055713e+00 0.0000000000000000e+00 1.1565562156055713e+00 1.6601395894957264e+01 0.0000000000000000e+00 0.0000000000000000e+00 0.0000000000000000e+00 0.0000000000000000e+00  1.0680493663918739e+01 -2.6553062139200647e+00 0.0000000000000000e+00 -2.6553062139200647e+00 2.3854808511987120e+01 0.0000000000000000e+00 0.0000000000000000e+00 0.0000000000000000e+00 0.0000000000000000e+00  4.3944706234606137e+01 -1.8387319887003830e+01 0.0000000000000000e+00 -1.8387319887003830e+01 -8.1103265505746389e+00 0.0000000000000000e+00 0.0000000000000000e+00 0.0000000000000000e+00 0.0000000000000000e+00  7.5051954613420236e+01 -3.5945585309643576e+01 0.0000000000000000e+00 -3.5945585309643576e+01 -3.9284265378135153e+01 0.0000000000000000e+00 0.0000000000000000e+00 0.0000000000000000e+00 0.0000000000000000e+00  6.1181147692661078e+01 -5.1707477577721491e+01 0.0000000000000000e+00 -5.1707477577721491e+01 -3.5018569143719766e+01 0.0000000000000000e+00 0.0000000000000000e+00 0.0000000000000000e+00 0.0000000000000000e+00  3.1610199293301690e+01 8.4062263776510875e+00 0.0000000000000000e+00 8.4062263776510875e+00 -3.9571823533777182e+00 0.0000000000000000e+00 0.0000000000000000e+00 0.0000000000000000e+00 0.0000000000000000e+00  1.7875755726262611e+01 4.6591732773408829e+01 0.0000000000000000e+00 4.6591732773408829e+01 1.7349269916923518e+01 0.0000000000000000e+00 0.0000000000000000e+00 0.0000000000000000e+00 0.0000000000000000e+00  -1.5597053661764189e+00 1.5837885118299837e+01 0.0000000000000000e+00 1.5837885118299837e+01 2.3884048593125250e+01 0.0000000000000000e+00 0.0000000000000000e+00 0.0000000000000000e+00 0.0000000000000000e+00  -3.3778102446434652e+01 -3.0773904968451454e+01 0.0000000000000000e+00 -3.0773904968451454e+01 5.3950375974869822e+01 0.0000000000000000e+00 0.0000000000000000e+00 0.0000000000000000e+00 0.0000000000000000e+00  -4.8901749754330950e+01 -2.6238167015394879e+01 0.0000000000000000e+00 -2.6238167015394879e+01 6.7577593555990106e+01 0.0000000000000000e+00 0.0000000000000000e+00 0.0000000000000000e+00 0.0000000000000000e+00  7.8016117351727461e+00 -6.2815108569469684e+00 0.0000000000000000e+00 -6.2815108569469711e+00 1.2082319316102772e+01 0.0000000000000000e+00 0.0000000000000000e+00 0.0000000000000000e+00 0.0000000000000000e+00  2.9041172225401546e+01 -1.5937696726274696e+01 0.0000000000000000e+00 -1.5937696726274693e+01 -2.8161921388767053e-01 0.0000000000000000e+00 0.0000000000000000e+00 0.0000000000000000e+00 0.0000000000000000e+00  6.2497319257796946e+01 -5.8285558401752574e+01 0.0000000000000000e+00 -5.8285558401752574e+01 -4.5604743930951010e+01 0.0000000000000000e+00 0.0000000000000000e+00 0.0000000000000000e+00 0.0000000000000000e+00  5.2792883364849011e+01 -5.6218107900157335e+01 0.0000000000000000e+00 -5.6218107900157335e+01 -3.4829684116202074e+01 0.0000000000000000e+00 0.0000000000000000e+00 0.0000000000000000e+00 0.0000000000000000e+00  2.3659228451231822e+01 -6.0357097602729830e+00 0.0000000000000000e+00 -6.0357097602729830e+00 -2.4997606368116050e+00 0.0000000000000000e+00 0.0000000000000000e+00 0.0000000000000000e+00 0.0000000000000000e+00  -2.4712007208519057e-01 -3.6564156414508564e+00 0.0000000000000000e+00 -3.6564156414508564e+00 2.3082818748525717e+01 0.0000000000000000e+00 0.0000000000000000e+00 0.0000000000000000e+00 0.0000000000000000e+00  -5.9022819335431379e+01 -4.5901714377538994e+01 0.0000000000000000e+00 -4.5901714377538994e+01 8.3659170390267732e+01 0.0000000000000000e+00 0.0000000000000000e+00 0.0000000000000000e+00 0.0000000000000000e+00  -1.5370326804143261e+02 -5.7129325444958575e+01 0.0000000000000000e+00 -5.7129325444958575e+01 1.7592584698451813e+02 0.0000000000000000e+00 0.0000000000000000e+00 0.0000000000000000e+00 0.0000000000000000e+00  -1.9198785231393009e+02 -1.5300861034777965e+01 0.0000000000000000e+00 -1.5300861034777965e+01 1.7643781190412295e+02 0.0000000000000000e+00 0.0000000000000000e+00 0.0000000000000000e+00 0.0000000000000000e+00  -1.0349357905101120e+02 4.0794436901982614e+01 0.0000000000000000e+00 4.0794436901982614e+01 9.3769857859068566e+01 0.0000000000000000e+00 0.0000000000000000e+00 0.0000000000000000e+00 0.0000000000000000e+00  -3.2084862003326677e+01 3.0442888680688565e+01 0.0000000000000000e+00 3.0442888680688565e+01 3.8915957105179608e+01 0.0000000000000000e+00 0.0000000000000000e+00 0.0000000000000000e+00 0.0000000000000000e+00  -6.2080491488413481e+00 3.9548823956519357e+00 0.0000000000000000e+00 3.9548823956519357e+00 1.0891344324306624e+01 0.0000000000000000e+00 0.0000000000000000e+00 0.0000000000000000e+00 0.0000000000000000e+00  6.3405476934352691e+00 1.9330400547276585e+00 0.0000000000000000e+00 1.9330400547276585e+00 3.1290894791988171e+00 0.0000000000000000e+00 0.0000000000000000e+00 0.0000000000000000e+00 0.0000000000000000e+00  3.6976230853639478e+01 -8.0312539914857936e+01 0.0000000000000000e+00 -8.0312539914857936e+01 7.5667314975623256e+01 0.0000000000000000e+00 0.0000000000000000e+00 0.0000000000000000e+00 0.0000000000000000e+00  2.7421042044090336e+02 1.5894039955907999e+02 0.0000000000000000e+00 1.5894039955907999e+02 4.8741582428818582e+01 0.0000000000000000e+00 0.0000000000000000e+00 0.0000000000000000e+00 0.0000000000000000e+00  4.5470059917476737e+00 6.5197988345577954e+01 0.0000000000000000e+00 6.5197988345577954e+01 1.7329619460734669e+01 0.0000000000000000e+00 0.0000000000000000e+00 0.0000000000000000e+00 0.0000000000000000e+00  2.7498484940132165e+01 -7.7540142571331314e+00 0.0000000000000000e+00 -7.7540142571331314e+00 2.7787762139412312e+01 0.0000000000000000e+00 0.0000000000000000e+00 0.0000000000000000e+00 0.0000000000000000e+00  1.4029503301524553e+01 -1.6485226254147469e+02 0.0000000000000000e+00 -1.6485226254147469e+02 -9.5561528203586974e+00 0.0000000000000000e+00 0.0000000000000000e+00 0.0000000000000000e+00 0.0000000000000000e+00  -4.2616828130221043e+00 1.9861333001070833e+00 0.0000000000000000e+00 1.9861333001070833e+00 -2.1896032494767834e+01 0.0000000000000000e+00 0.0000000000000000e+00 0.0000000000000000e+00 0.0000000000000000e+00  1.8169934632449507e+01 6.7809144950254819e+01 0.0000000000000000e+00 6.7809144950254819e+01 1.4844947028874268e+01 0.0000000000000000e+00 0.0000000000000000e+00 0.0000000000000000e+00 0.0000000000000000e+00  1.1487711894438358e+02 -1.1909779173075083e+02 0.0000000000000000e+00 -1.1909779173075083e+02 3.1197637812721597e+00 0.0000000000000000e+00 0.0000000000000000e+00 0.0000000000000000e+00 0.0000000000000000e+00  2.6518302043075408e+01 6.5211147668659549e+01 0.0000000000000000e+00 6.5211147668659549e+01 1.3319372922243964e+01 0.0000000000000000e+00 0.0000000000000000e+00 0.0000000000000000e+00 0.0000000000000000e+00  2.3951599036967995e+01 3.4721437147979692e+01 0.0000000000000000e+00 3.4721437147979692e+01 3.0526607064107004e+01 0.0000000000000000e+00 0.0000000000000000e+00 0.0000000000000000e+00 0.0000000000000000e+00  1.5452742723929957e+01 7.9728940620683963e-01 0.0000000000000000e+00 7.9728940620683963e-01 3.3165827678555445e+01 0.0000000000000000e+00 0.0000000000000000e+00 0.0000000000000000e+00 0.0000000000000000e+00  3.1273624968789413e+01 4.9872070179094963e-01 0.0000000000000000e+00 4.9872070179094963e-01 2.7161313199631635e+01 0.0000000000000000e+00 0.0000000000000000e+00 0.0000000000000000e+00 0.000000000000