<?xml version="1.0"?>
<VTKFile type="UnstructuredGrid"  version="0.1"  >
<UnstructuredGrid>
<Piece  NumberOfPoints="4835" NumberOfCells="9296">
<Points>
<DataArray  type="Float64"  NumberOfComponents="3"  format="ascii">0 1.5 0  -0 0.1307014797437256 0  0.01134725726173103 0.1483581566929452 0  0.04283342385313163 0.181379897845022 0  0.08000000000000007 0.2078460969082653 0  0.1215036888038188 0.2268001964915204 0  0.1658444388144116 0.2375571460514239 0  0.2114196597976982 0.2397281614039219 0  0.2565821445222626 0.23323477639765 0  0.2996996031204527 0.2183116788850844 0  0.3392136582970876 0.1954982284920806 0  0.3736961691452169 0.1656189627557069 0  0.4019008478794835 0.1297537961893434 0  0.4059948616314525 0.1218125174167552 0  0.4254856317806581 0.1498156710261111 0  0.4592156240140376 0.1818784194956707 0  0.498709345141744 0.2064950441012706 0  0.5423499175804942 0.222657737339227 0  0.588350691167096 0.2297047966493422 0  0.6348283888260526 0.2273477145954656 0  0.6798802081543086 0.2156829903938285 0  0.7216617223752013 0.1951881792237927 0  0.7584623913874079 0.1667023410626976 0  0.7879811633353602 0.1323170874919288 0  0.8152477706948351 0.1684239109116393 0  0.849341340905186 0.1995043068200599 0  0.8885654110558655 0.2237908228387656 0  0.9315842524819793 0.2404564107932048 0  0.9769329101341745 0.2489335440737586 0  1.023067089865825 0.2489335440737586 0  1.068415747518021 0.2404564107932048 0  1.111434588944135 0.2237908228387656 0  1.150658659094814 0.1995043068200599 0  1.184752229305165 0.1684239109116393 0  1.212554283932403 0.1316080407193389 0  1.233118057351089 0.09031041654678823 0  1.245743274920975 0.04593737945414259 0  1.25 0 0  1.36108673858246 0 0  1.36108673858246 0.02281345039300389 0  1.369721686332521 0.06761581364194322 0  1.386679492322819 0.1099743652145785 0  1.411347257261731 0.1483581566929452 0  1.442833423853132 0.181379897845022 0  1.48 0.2078460969082653 0  1.521503688803819 0.2268001964915204 0  1.565844438814412 0.2375571460514239 0  1.611419659797698 0.2397281614039219 0  1.656582144522263 0.23323477639765 0  1.699699603120453 0.2183116788850844 0  1.739213658297088 0.1954982284920806 0  1.765497292517293 0.1727233297951148 0  1.79 0.1905255888325765 0  1.832016261237511 0.2092324335849338 0  1.877003738081116 0.2187948169810202 0  1.922996261918884 0.2187948169810201 0  1.967983738762488 0.2092324335849338 0  2.01 0.1905255888325765 0  2.047208733398949 0.1634918616050267 0  2.077983738762488 0.1293127555043441 0  2.087980221556173 0.1119983394086949 0  2.111347257261731 0.1483581566929452 0  2.142833423853131 0.181379897845022 0  2.18 0.2078460969082653 0  2.221503688803819 0.2268001964915204 0  2.265844438814411 0.2375571460514239 0  2.311419659797698 0.2397281614039219 0  2.356582144522263 0.23323477639765 0  2.399699603120453 0.2183116788850844 0  2.439213658297088 0.1954982284920806 0  2.457172785224357 0.179936556425434 0  2.459215624014038 0.1818784194956707 0  2.498709345141744 0.2064950441012706 0  2.542349917580494 0.222657737339227 0  2.588350691167096 0.2297047966493422 0  2.634828388826053 0.2273477145954656 0  2.679880208154309 0.2156829903938285 0  2.721661722375202 0.1951881792237927 0  2.758462391387408 0.1667023410626976 0  2.788775591477674 0.1313916894718022 0  2.811360296672653 0.09070184667606328 0  2.825291886488074 0.04629865962039181 0  2.83 0 0  3 0 0  3 1.5 0  0 0.8023345134541607 0  0.4157402467060553 0.1358140942214332 0  3 0.75 0  1.5 1.5 0  0 0.4665179965989431 0  3 0.375 0  0 0.2986097381713344 0  0 0.21465560895753 0  0 0.1726785443506278 0  0 0.1516900120471767 0  2.25 1.5 0  0.75 1.5 0  1.169989811679434 0.9093651732355621 0  1.875 0.9142758100523694 0  0.5779365036100435 0.9330077223331824 0  2.43246936225428 0.7976868957014953 0  3 1.125 0  2.625 1.5 0  0.375 1.5 0  0 1.15116725672708 0  1.449253057879235 0.6213873587688492 0  0.7697361971202799 0.5943793911944208 0  0.3630076616442724 0.6080350564914153 0  2.069570984533324 0.5812833454367354 0  1.875 1.5 0  1.125 1.5 0  2.4375 1.173854331507092 0  0.8831005780031504 1.150004411874495 0  1.52207987625039 0.9714054497350916 0  2.0625 1.207137905026185 0  1.107793318688589 0.5766433232347881 0  1.3125 1.2274095306559 0  2.729985961523573 0.9375 0  2.711750443384031 0.5625 0  1.6875 1.243073622519403 0  1.760894209596057 0.6242614373612321 0  0.2643049832376852 0.9767508850906206 0  0.4566194854768236 1.209399638766609 0  2.728217267602858 1.228217267602858 0  2.374499195658668 0.518153287180279 0  2.169650674143702 0.9320836008992801 0  0.8550719231757007 0.8663457099410541 0  1.303567858855371 0.4078893824383345 0  0.2133194436665546 1.297827371069245 0  0.5308017499037517 0.4517023193912283 0  1.083077097725883 1.270382833575872 0  0.6830238102386342 1.274223132985906 0  2.250983943328481 0.6895458766515071 0  1.81089184968521 0.4192208869708923 0  1.679274712803154 0.8238291020339636 0  1.5785148524717 0.4510287526682343 0  0 0.6344262550265519 0  0.2138866804674432 0.765685327335986 0  0.5683532856219899 0.6602211278972628 0  0.9375 1.5 0  0.93201471049342 0.4568525359126817 0  1.262687644113192 0.7198627504483751 0  0.4154000952342595 0.8069446327163143 0  0.2139559556345817 0.4540330649264536 0  2.06977986811652 0.3813318272583126 0  0.7200651071201811 0.4061566188086219 0  1.932157822851692 0.7243325602448901 0  0.9441947922338874 0.689010158618046 0  3 1.3125 0  2.8125 1.5 0  0.5625 1.5 0  1.865575888969794 1.126762336039809 0  1.691368628814911 1.054521333692312 0  2.243682835689564 1.11932177110543 0  2.294933652681559 1.30886281903233 0  2.4375 1.5 0  2.385653526545621 0.9864303388879195 0  2.560603055863368 1.320052196970997 0  2.605098352881707 1.08210421072607 0  2.797310903081369 0.7462827406561878 0  1.497248537655819 1.30111187331848 0  1.6875 1.5 0  3 0.5625 0  3 0.9375 0  1.3125 1.5 0  2.0625 1.5 0  3 0.1875 0  0.1875 1.5 0  0.9978323986844071 0.9954535003819682 0  0.7455388243606953 1.020382929522352 0  1.904625246064701 1.312514164033404 0  1.15622562020362 1.097022204090454 0  1.332774827327096 1.015638362851981 0  2.617489052932561 0.7904306825848915 0  2.798834931624827 0.3810601956207291 0  2.518702939674024 0.6340258449062608 0  1.42862153170688 0.8082655083169574 0  2.016051725629557 1.02698392558818 0  2.557580898838836 0.4303899543284488 0  0.9143579924460792 1.324371521638632 0  0.6907201107072946 0.792483910827579 0  0 1.32558362836354 0  0 0.9767508850906206 0  0.6046140448732628 1.120294499938289 0  1.129353874055204 0.4037183319394277 0  2.240578803971554 0.4086758810341738 0  1.544887400155686 1.138911442832316 0  2.828734594747712 1.083464790593587 0  0.401358428169992 0.3487630281226344 0  0.1737226743516005 1.126953194380642 0  1.219293394173851 1.36370476532795 0  2.095593203128485 0.7438044944874065 0  1.099947866649755 0.7404984974094087 0  0.4225987016856009 0.9654760294046846 0  1.265404984472296 0.5615537191035901 0  1.908099381276504 0.55154028811489 0  1.605233217264331 0.6055204891939014 0  0.2070403235706232 0.6098576665994301 0  0.46875 1.369568887475175 0  2.529999076220762 0.9220559311443081 0  0.3296306516835505 1.118561581461605 0  2.136891098712708 1.353568952513092 0  0.1250262355603041 0.8895426992723907 0  2.286468869522623 0.8363516131379349 0  2.03024950667879 0.8782110935537075 0  2.71875 1.380113023166798 0  2.851157149000174 1.312122703709591 0  2.855875221692015 0.6072101925796368 0  1.766081959310164 1.371536811259701 0  2.417227117459742 0.3724437385102629 0  1.365276810157265 1.363519047380362 0  1.451310499971155 0.3640091006357036 0  2.211012611580202 0.5503989260541815 0  1.306789156675977 0.2570819477057019 0  2.872418607762505 0.256220469598872 0  2.896902016958361 0.84375 0  0.6487095286926469 0.5256523827174592 0  1.021477811485347 1.13286821063065 0  1.622350554793597 1.371881362989231 0  1.297557547403682 0.854343314165958 0  0.5529398034156436 0.7974238691464364 0  1.000783388185185 0.848708117631217 0  0.8152141294141361 0.735251676415229 0  2.383386472338196 0.654760318649699 0  1.031024064601143 1.39833771698851 0  1.812756223744312 0.7919737740986065 0  2.902150447032281 0.46875 0  1.558478314279628 0.7430881247578319 0  2.428095049619715 1.306700780290589 0  0.3309906154406318 1.369459454266083 0  0.117457385934373 0.361895434578648 0  0.4016309285334721 0.4812757168525422 0  1.933925005895449 0.3564723397117748 0  0.7479761182598068 1.155601287121883 0  0.09711831342126455 1.23837544254531 0  1.384025258268523 0.5094422387329146 0  2.188092881729461 1.235445092789212 0  0.116614462422195 1.388212202394539 0  0.5993432477835932 1.374610260003488 0  0.8731519049868882 1.022757560732678 0  0.1109021857268646 0.5275252102504697 0  1.703820060431276 0.5017282682884084 0  0.1118224159219883 0.6921053365242938 0  0.3267069786561488 1.244030051070764 0  2.878127312164905 0.9679608000003684 0  1.408346090782441 1.129729637108486 0  0.8047358880839842 0.3153623688883521 0  2.6405066654848 0.6664933064830099 0  0.4805702216488833 1.081724858267193 0  2.668084598222495 0.3562155878484895 0  2.138121375887776 1.052804865904559 0  1.96875 1.5 0  0.4891907154726056 0.5668366043293971 0  0.1473863332166031 1.0086557402922 0  2.558860649578938 1.196592162044302 0  1.717555244640741 0.3396535732296396 0  0.84375 1.5 0  0.7839942032523698 1.367093097528149 0  3 1.40625 0  2.484124862262918 1.060073596740424 0  3 1.21875 0  2.34375 1.5 0  0.8196209764267471 1.251369088398821 0  2.023202270335131 1.319214170177879 0  0.5721208504581607 1.233781127425821 0  1.984735816620384 0.462442873488178 0  0.6955333931194808 0.9118686683832042 0  1.19123464962554 1.213906677421382 0  0.8929803638185398 0.5752987850534633 0  1.566736823664244 0.8614646887466211 0  1.808684073906441 1.017786844668201 0  1.719105195888173 0.9374041347540488 0  1.671476674178274 0.70476362875428 0  1.218260709491531 0.330629071498573 0  2.839021519587611 1.19788439058923 0  0.5170070740021471 0.3361933937254621 0  1.393527188254162 0.91788143976
[...]
<PointData  Tensors="f_834"> 
<DataArray  type="Float64"  Name="f_834"  NumberOfComponents="9" format="ascii">-4.8754003206316545e+00 -6.1895772508345392e-01 0.0000000000000000e+00 -6.1895772508345392e-01 -1.7678658076547666e+01 0.0000000000000000e+00 0.0000000000000000e+00 0.0000000000000000e+00 0.0000000000000000e+00  2.7723698488470486e+01 -4.3389401229349472e-01 0.0000000000000000e+00 -4.3389401229349472e-01 2.7322864709924055e+01 0.0000000000000000e+00 0.0000000000000000e+00 0.0000000000000000e+00 0.0000000000000000e+00  2.8168057987271503e+01 -1.0493447899338033e-01 0.0000000000000000e+00 -1.0493447899338033e-01 2.1945158060101221e+01 0.0000000000000000e+00 0.0000000000000000e+00 0.0000000000000000e+00 0.0000000000000000e+00  4.6822110876139064e+01 -1.5047418146341640e+01 0.0000000000000000e+00 -1.5047418146341640e+01 8.4773134704120723e-01 0.0000000000000000e+00 0.0000000000000000e+00 0.0000000000000000e+00 0.0000000000000000e+00  8.3619586657465604e+01 -4.0770925090670787e+01 0.0000000000000000e+00 -4.0770925090670787e+01 -3.2627079527332093e+01 0.0000000000000000e+00 0.0000000000000000e+00 0.0000000000000000e+00 0.0000000000000000e+00  7.4401718606368149e+01 -4.2526074948481941e+01 0.0000000000000000e+00 -4.2526074948481941e+01 -3.5172265670578071e+01 0.0000000000000000e+00 0.0000000000000000e+00 0.0000000000000000e+00 0.0000000000000000e+00  5.5622456767213402e+00 1.4149770481499814e+01 0.0000000000000000e+00 1.4149770481499814e+01 2.2905922606913514e+01 0.0000000000000000e+00 0.0000000000000000e+00 0.0000000000000000e+00 0.0000000000000000e+00  2.6714450123930753e+01 9.3419008031963216e+01 0.0000000000000000e+00 9.3419008031963216e+01 1.1497192419651940e+01 0.0000000000000000e+00 0.0000000000000000e+00 0.0000000000000000e+00 0.0000000000000000e+00  3.4697436817949253e+01 4.5808288448961505e+01 0.0000000000000000e+00 4.5808288448961505e+01 1.1798440934144564e+01 0.0000000000000000e+00 0.0000000000000000e+00 0.0000000000000000e+00 0.0000000000000000e+00  -2.5971836836917788e+01 -1.8905983311704819e+00 0.0000000000000000e+00 -1.8905983311704819e+00 7.4972459218631897e+01 0.0000000000000000e+00 0.0000000000000000e+00 0.0000000000000000e+00 0.0000000000000000e+00  -6.5015782033978013e+01 -1.3998719142806303e+01 0.0000000000000000e+00 -1.3998719142806303e+01 1.0423309241436141e+02 0.0000000000000000e+00 0.0000000000000000e+00 0.0000000000000000e+00 0.0000000000000000e+00  -5.6721981809880589e+01 -9.0925218794309188e+00 0.0000000000000000e+00 -9.0925218794309188e+00 9.5912883682238288e+01 0.0000000000000000e+00 0.0000000000000000e+00 0.0000000000000000e+00 0.0000000000000000e+00  2.9871950525701607e+01 5.5622249076619328e+00 0.0000000000000000e+00 5.5622249076619328e+00 2.7804716476956173e+01 0.0000000000000000e+00 0.0000000000000000e+00 0.0000000000000000e+00 0.0000000000000000e+00  2.8058790764205870e+01 -6.2146429642753471e+00 0.0000000000000000e+00 -6.2146429642753471e+00 2.4888742297669328e+01 0.0000000000000000e+00 0.0000000000000000e+00 0.0000000000000000e+00 0.0000000000000000e+00  5.5300392632292244e+01 -4.6543884314171740e+00 0.0000000000000000e+00 -4.6543884314171740e+00 -1.2004376074005597e+01 0.0000000000000000e+00 0.0000000000000000e+00 0.0000000000000000e+00 0.0000000000000000e+00  5.3959745848022806e+01 -1.1261749596464659e+01 0.0000000000000000e+00 -1.1261749596464659e+01 -1.3152135887896279e+01 0.0000000000000000e+00 0.0000000000000000e+00 0.0000000000000000e+00 0.0000000000000000e+00  -1.0987704142032591e+01 3.7866323670095468e+01 0.0000000000000000e+00 3.7866323670095468e+01 5.4305584924672324e+01 0.0000000000000000e+00 0.0000000000000000e+00 0.0000000000000000e+00 0.0000000000000000e+00  -1.3935246064067515e+01 7.2932512734669146e+01 0.0000000000000000e+00 7.2932512734669146e+01 6.7760142350366408e+01 0.0000000000000000e+00 0.0000000000000000e+00 0.0000000000000000e+00 0.0000000000000000e+00  9.4049697501200225e+00 2.5610115119046817e+01 0.0000000000000000e+00 2.5610115119046817e+01 4.7700408965500209e+01 0.0000000000000000e+00 0.0000000000000000e+00 0.0000000000000000e+00 0.0000000000000000e+00  7.5809830509190244e+00 -5.8905265547768352e+01 0.0000000000000000e+00 -5.8905265547768352e+01 4.8672681877785493e+01 0.0000000000000000e+00 0.0000000000000000e+00 0.0000000000000000e+00 0.0000000000000000e+00  -3.3945701886454565e+01 -4.9079142455730441e+01 0.0000000000000000e+00 -4.9079142455730441e+01 6.5457589507674939e+01 0.0000000000000000e+00 0.0000000000000000e+00 0.0000000000000000e+00 0.0000000000000000e+00  2.9166573377120660e+01 -1.2221680800100412e+01 0.0000000000000000e+00 -1.2221680800100412e+01 1.5058084985814334e+01 0.0000000000000000e+00 0.0000000000000000e+00 0.0000000000000000e+00 0.0000000000000000e+00  6.0410573816673129e+01 1.8367244293592073e+00 0.0000000000000000e+00 1.8367244293592073e+00 -1.8360058015526771e+01 0.0000000000000000e+00 0.0000000000000000e+00 0.0000000000000000e+00 0.0000000000000000e+00  2.0235726787451355e+01 2.9834320615472905e+00 0.0000000000000000e+00 2.9834320615472905e+00 2.3681633407481222e+01 0.0000000000000000e+00 0.0000000000000000e+00 0.0000000000000000e+00 0.0000000000000000e+00  -5.4096767340391004e+01 3.1890965385404573e+00 0.0000000000000000e+00 3.1890965385404573e+00 9.7451657553412602e+01 0.0000000000000000e+00 0.0000000000000000e+00 0.0000000000000000e+00 0.0000000000000000e+00  -8.0056614521349502e+01 2.3302327910927275e+01 0.0000000000000000e+00 2.3302327910927275e+01 1.1927745627849494e+02 0.0000000000000000e+00 0.0000000000000000e+00 0.0000000000000000e+00 0.0000000000000000e+00  -3.3247494966620465e+01 2.4555367725711282e+01 0.0000000000000000e+00 2.4555367725711282e+01 8.1104820007979924e+01 0.0000000000000000e+00 0.0000000000000000e+00 0.0000000000000000e+00 0.0000000000000000e+00  6.7230256050845751e+00 -1.4528082340132556e+01 0.0000000000000000e+00 -1.4528082340132556e+01 3.1341915424682909e+01 0.0000000000000000e+00 0.0000000000000000e+00 0.0000000000000000e+00 0.0000000000000000e+00  2.8463965390051815e+01 -6.4982349661066394e+01 0.0000000000000000e+00 -6.4982349661066394e+01 1.4772150692125088e+01 0.0000000000000000e+00 0.0000000000000000e+00 0.0000000000000000e+00 0.0000000000000000e+00  3.0584052491305524e+01 -2.8105513048964255e+01 0.0000000000000000e+00 -2.8105513048964255e+01 7.9162484565964473e+00 0.0000000000000000e+00 0.0000000000000000e+00 0.0000000000000000e+00 0.0000000000000000e+00  5.6395895443593488e+01 4.1266563772127505e+01 0.0000000000000000e+00 4.1266563772127505e+01 -1.4516255567352543e+01 0.0000000000000000e+00 0.0000000000000000e+00 0.0000000000000000e+00 0.0000000000000000e+00  8.4336000063776368e+01 4.8973480296200933e+01 0.0000000000000000e+00 4.8973480296200933e+01 -4.8099332950253213e+01 0.0000000000000000e+00 0.0000000000000000e+00 0.0000000000000000e+00 0.0000000000000000e+00  2.4274134668043526e+01 2.2967575628885875e+01 0.0000000000000000e+00 2.2967575628885875e+01 1.7344796082623727e+01 0.0000000000000000e+00 0.0000000000000000e+00 0.0000000000000000e+00 0.0000000000000000e+00  -4.5236853724831576e+01 2.0413561441093044e+01 0.0000000000000000e+00 2.0413561441093044e+01 8.2033578483521794e+01 0.0000000000000000e+00 0.0000000000000000e+00 0.0000000000000000e+00 0.0000000000000000e+00  -7.6445823581112151e+01 5.7776340672602188e+01 0.0000000000000000e+00 5.7776340672602188e+01 1.1631877115542974e+02 0.0000000000000000e+00 0.0000000000000000e+00 0.0000000000000000e+00 0.0000000000000000e+00  -6.4798344794271244e+01 8.0141663212387698e+01 0.0000000000000000e+00 8.0141663212387698e+01 1.0541650639288930e+02 0.0000000000000000e+00 0.0000000000000000e+00 0.0000000000000000e+00 0.0000000000000000e+00  -1.1718501908756444e+01 6.7591891710318123e+01 0.0000000000000000e+00 6.7591891710318123e+01 5.9236970615918487e+01 0.0000000000000000e+00 0.0000000000000000e+00 0.0000000000000000e+00 0.0000000000000000e+00  2.1641108173225034e+00 1.4965230147366380e+01 0.0000000000000000e+00 1.4965230147366380e+01 5.3964339362481375e+01 0.0000000000000000e+00 0.0000000000000000e+00 0.0000000000000000e+00 0.0000000000000000e+00  2.7317365101847312e+01 -3.6072387709984746e+00 0.0000000000000000e+00 -3.6072387709984746e+00 2.0226061764108891e+01 0.0000000000000000e+00 0.0000000000000000e+00 0.0000000000000000e+00 0.0000000000000000e+00  3.6727166937207762e+01 1.7685790543341938e+01 0.0000000000000000e+00 1.7685790543341938e+01 1.3430254440943743e+01 0.0000000000000000e+00 0.0000000000000000e+00 0.0000000000000000e+00 0.0000000000000000e+00  5.1572254686661481e+01 3.7621903205236968e+01 0.0000000000000000e+00 3.7621903205236968e+01 -9.5352017596783707e+00 0.0000000000000000e+00 0.0000000000000000e+00 0.0000000000000000e+00 0.0000000000000000e+00  4.1209522496688244e+01 2.5483831811047189e+01 0.0000000000000000e+00 2.5483831811047189e+01 -2.0217789166418831e+00 0.0000000000000000e+00 0.0000000000000000e+00 0.0000000000000000e+00 0.0000000000000000e+00  -6.5378528435846066e+00 7.2044749540563382e+00 0.0000000000000000e+00 7.2044749540563391e+00 4.7913288477041782e+01 0.0000000000000000e+00 0.0000000000000000e+00 0.0000000000000000e+00 0.0000000000000000e+00  -5.0990728477091224e+01 1.4329593448734455e+01 0.0000000000000000e+00 1.4329593448734455e+01 9.8233314629739155e+01 0.0000000000000000e+00 0.0000000000000000e+00 0.0000000000000000e+00 0.0000000000000000e+00  -4.7498971425943616e+01 1.2325081382957316e+01 0.0000000000000000e+00 1.2325081382957316e+01 7.7738207413614475e+01 0.0000000000000000e+00 0.0000000000000000e+00 0.0000000000000000e+00 0.0000000000000000e+00  -8.9075286013815358e+00 -1.8081065147043024e+01 0.0000000000000000e+00 -1.8081065147043024e+01 4.4503484234121039e+01 0.0000000000000000e+00 0.0000000000000000e+00 0.0000000000000000e+00 0.0000000000000000e+00  2.9699553768664167e+01 -6.7486422977362025e+01 0.0000000000000000e+00 -6.7486422977362025e+01 8.6706328081358974e-02 0.0000000000000000e+00 0.0000000000000000e+00 0.0000000000000000e+00 0.0000000000000000e+00  2.7972256659405915e+01 -5.3578314791042366e+01 0.0000000000000000e+00 -5.3578314791042366e+01 5.6942636566328968e+00 0.0000000000000000e+00 0.0000000000000000e+00 0.0000000000000000e+00 0.0000000000000000e+00  6.3088542722004270e+01 2.9317750784117521e+01 0.0000000000000000e+00 2.9317750784117521e+01 -2.4923409567198625e+01 0.0000000000000000e+00 0.0000000000000000e+00 0.0000000000000000e+00 0.0000000000000000e+00  6.5085256110019358e+01 5.0002587412422045e+01 0.0000000000000000e+00 5.0002587412422045e+01 -4.1271110881322713e+01 0.0000000000000000e+00 0.0000000000000000e+00 0.0000000000000000e+00 0.0000000000000000e+00  7.8772449921040675e+01 2.8608122065261973e+01 0.0000000000000000e+00 2.8608122065261973e+01 -3.1281222700389218e+01 0.0000000000000000e+00 0.0000000000000000e+00 0.0000000000000000e+00 0.0000000000000000e+00  2.2861122575565137e+01 1.8071643391676819e+01 0.0000000000000000e+00 1.8071643391676819e+01 1.0152261367881495e+01 0.0000000000000000e+00 0.0000000000000000e+00 0.0000000000000000e+00 0.0000000000000000e+00  -1.4259112770902231e+01 1.4133967856040229e+01 0.0000000000000000e+00 1.4133967856040229e+01 4.6034314864379667e+01 0.0000000000000000e+00 0.0000000000000000e+00 0.0000000000000000e+00 0.0000000000000000e+00  1.2117579996845770e+01 -3.3097359078990671e+01 0.0000000000000000e+00 -3.3097359078990671e+01 2.4020493637846474e+01 0.0000000000000000e+00 0.0000000000000000e+00 0.0000000000000000e+00 0.0000000000000000e+00  3.8405929894536840e+01 -7.2217195006474256e+01 0.0000000000000000e+00 -7.2217195006474256e+01 -2.4526168588393022e+00 0.0000000000000000e+00 0.0000000000000000e+00 0.0000000000000000e+00 0.0000000000000000e+00  2.6801522413761205e+01 -2.8135648716738203e+01 0.0000000000000000e+00 -2.8135648716738203e+01 6.1264837022864036e+00 0.0000000000000000e+00 0.0000000000000000e+00 0.0000000000000000e+00 0.0000000000000000e+00  5.7865402581822536e+01 4.0056272858210100e+01 0.0000000000000000e+00 4.0056272858210100e+01 -1.9167759944125851e+01 0.0000000000000000e+00 0.0000000000000000e+00 0.0000000000000000e+00 0.0000000000000000e+00  9.9567969235045553e+01 5.4255142893114922e+01 0.0000000000000000e+00 5.4255142893114922e+01 -6.8279774495585599e+01 0.0000000000000000e+00 0.0000000000000000e+00 0.0000000000000000e+00 0.0000000000000000e+00  6.0544043633681049e+01 9.8019827258502588e+00 0.0000000000000000e+00 9.8019827258502588e+00 -2.4348282269157952e+01 0.0000000000000000e+00 0.0000000000000000e+00 0.0000000000000000e+00 0.0000000000000000e+00  2.9192287090756793e+01 7.9303050089611871e+00 0.0000000000000000e+00 7.9303050089611871e+00 9.6108432271977211e+00 0.0000000000000000e+00 0.0000000000000000e+00 0.0000000000000000e+00 0.0000000000000000e+00  2.1371634345317300e+01 1.1108035139754742e+00 0.0000000000000000e+00 1.1108035139754742e+00 1.6124775496900128e+01 0.0000000000000000e+00 0.0000000000000000e+00 0.0000000000000000e+00 0.0000000000000000e+00  7.9995044815036067e+00 -2.7562144973093554e+00 0.0000000000000000e+00 -2.7562144973093554e+00 2.4780931128093528e+01 0.0000000000000000e+00 0.0000000000000000e+00 0.0000000000000000e+00 0.0000000000000000e+00  4.6415992859530746e+01 -2.0006069577460821e+01 0.0000000000000000e+00 -2.0006069577460821e+01 -1.0674837415708314e+01 0.0000000000000000e+00 0.0000000000000000e+00 0.0000000000000000e+00 0.0000000000000000e+00  8.2676466659270403e+01 -4.2017558113606050e+01 0.0000000000000000e+00 -4.2017558113606050e+01 -4.6855068849335161e+01 0.0000000000000000e+00 0.0000000000000000e+00 0.0000000000000000e+00 0.0000000000000000e+00  6.8775911830403473e+01 -6.1465760049063299e+01 0.0000000000000000e+00 -6.1465760049063299e+01 -4.3203724917127573e+01 0.0000000000000000e+00 0.0000000000000000e+00 0.0000000000000000e+00 0.0000000000000000e+00  3.3817227248013204e+01 9.5230723609933499e+00 0.0000000000000000e+00 9.5230723609933499e+00 -5.3511743971103733e+00 0.0000000000000000e+00 0.0000000000000000e+00 0.0000000000000000e+00 0.0000000000000000e+00  1.7049790455763585e+01 5.5662591660665605e+01 0.0000000000000000e+00 5.5662591660665605e+01 1.8353584963932704e+01 0.0000000000000000e+00 0.0000000000000000e+00 0.0000000000000000e+00 0.0000000000000000e+00  -2.6349705927667233e+00 1.6616334995238372e+01 0.0000000000000000e+00 1.6616334995238372e+01 2.6479822031380746e+01 0.0000000000000000e+00 0.0000000000000000e+00 0.0000000000000000e+00 0.0000000000000000e+00  -4.2240179913845203e+01 -3.6463649702945787e+01 0.0000000000000000e+00 -3.6463649702945787e+01 6.1858934116879794e+01 0.0000000000000000e+00 0.0000000000000000e+00 0.0000000000000000e+00 0.0000000000000000e+00  -5.9534939700826712e+01 -3.2290112333336744e+01 0.0000000000000000e+00 -3.2290112333336744e+01 7.7289598938345435e+01 0.0000000000000000e+00 0.0000000000000000e+00 0.0000000000000000e+00 0.0000000000000000e+00  8.5043081117943995e+00 -4.6931603193976770e+00 0.0000000000000000e+00 -4.6931603193976770e+00 1.0715233213068666e+01 0.0000000000000000e+00 0.0000000000000000e+00 0.0000000000000000e+00 0.0000000000000000e+00  2.7941810779144348e+01 -1.6383846118744330e+01 0.0000000000000000e+00 -1.6383846118744330e+01 8.1005994475298926e-01 0.0000000000000000e+00 0.0000000000000000e+00 0.0000000000000000e+00 0.0000000000000000e+00  6.7906981454690580e+01 -7.0493306128324207e+01 0.0000000000000000e+00 -7.0493306128324207e+01 -5.4478768562142449e+01 0.0000000000000000e+00 0.0000000000000000e+00 0.0000000000000000e+00 0.0000000000000000e+00  5.9655089739623961e+01 -6.4037707621043012e+01 0.0000000000000000e+00 -6.4037707621043012e+01 -3.9997640021226793e+01 0.0000000000000000e+00 0.0000000000000000e+00 0.0000000000000000e+00 0.0000000000000000e+00  2.5508358984090766e+01 -5.3114270163249326e+00 0.0000000000000000e+00 -5.3114270163249326e+00 -3.2756346958314060e+00 0.0000000000000000e+00 0.0000000000000000e+00 0.0000000000000000e+00 0.0000000000000000e+00  -2.2335318597964529e+00 -6.3467102110579052e+00 0.0000000000000000e+00 -6.3467102110579052e+00 2.5670218783626183e+01 0.0000000000000000e+00 0.0000000000000000e+00 0.0000000000000000e+00 0.0000000000000000e+00  -6.7107678283025862e+01 -5.6774387951962012e+01 0.0000000000000000e+00 -5.6774387951962012e+01 9.4119246291538445e+01 0.0000000000000000e+00 0.0000000000000000e+00 0.0000000000000000e+00 0.0000000000000000e+00  -1.8372549199880734e+02 -6.7632502868953537e+01 0.0000000000000000e+00 -6.7632502868953537e+01 2.0449487713588780e+02 0.0000000000000000e+00 0.0000000000000000e+00 0.0000000000000000e+00 0.0000000000000000e+00  -2.2276341268495599e+02 -1.8453894521185514e+01 0.0000000000000000e+00 -1.8453894521185514e+01 2.0483910895014495e+02 0.0000000000000000e+00 0.0000000000000000e+00 0.0000000000000000e+00 0.0000000000000000e+00  -1.1913036379762578e+02 4.6479752764960878e+01 0.0000000000000000e+00 4.6479752764960878e+01 1.0660685685381358e+02 0.0000000000000000e+00 0.0000000000000000e+00 0.0000000000000000e+00 0.0000000000000000e+00  -3.5517116249595972e+01 3.3420628463445119e+01 0.0000000000000000e+00 3.3420628463445119e+01 4.3059858388051431e+01 0.0000000000000000e+00 0.0000000000000000e+00 0.0000000000000000e+00 0.0000000000000000e+00  -6.1280385820826684e+00 3.3122642554496591e+00 0.0000000000000000e+00 3.3122642554496591e+00 1.1202655947938478e+01 0.0000000000000000e+00 0.0000000000000000e+00 0.0000000000000000e+00 0.0000000000000000e+00  6.8222359931175518e+00 2.3467344513195552e+00 0.0000000000000000e+00 2.3467344513195552e+00 3.4784776047042594e+00 0.0000000000000000e+00 0.0000000000000000e+00 0.0000000000000000e+00 0.0000000000000000e+00  3.0765606044822540e+01 -6.9693010627500215e+01 0.0000000000000000e+00 -6.9693010627500215e+01 6.1697754182838217e+01 0.0000000000000000e+00 0.0000000000000000e+00 0.0000000000000000e+00 0.0000000000000000e+00  3.2780218133878839e+02 1.9458685879401440e+02 0.0000000000000000e+00 1.9458685879401440e+02 6.7240480727829564e+01 0.0000000000000000e+00 0.0000000000000000e+00 0.0000000000000000e+00 0.0000000000000000e+00  4.3206055778558934e+00 7.6913527635449938e+01 0.0000000000000000e+00 7.6913527635449938e+01 1.7389574998855029e+01 0.0000000000000000e+00 0.0000000000000000e+00 0.0000000000000000e+00 0.0000000000000000e+00  2.6467196158268894e+01 -8.1125054358729081e+00 0.0000000000000000e+00 -8.1125054358729081e+00 2.7642420196724945e+01 0.0000000000000000e+00 0.0000000000000000e+00 0.0000000000000000e+00 0.0000000000000000e+00  1.6894831841755337e+01 -1.8645667063773760e+02 0.0000000000000000e+00 -1.8645667063773760e+02 -1.0028189395977474e+01 0.0000000000000000e+00 0.0000000000000000e+00 0.0000000000000000e+00 0.0000000000000000e+00  -2.6028688203663415e+00 2.1461820231628250e+00 0.0000000000000000e+00 2.1461820231628250e+00 -2.2689198537507210e+01 0.0000000000000000e+00 0.0000000000000000e+00 0.0000000000000000e+00 0.0000000000000000e+00  1.8508699867194402e+01 8.0678322259895069e+01 0.0000000000000000e+00 8.0678322259895069e+01 1.3272832619134865e+01 0.0000000000000000e+00 0.0000000000000000e+00 0.0000000000000000e+00 0.0000000000000000e+00  1.3825431110899328e+02 -1.1425430585718451e+02 0.0000000000000000e+00 -1.1425430585718451e+02 4.1178549885808735e+00 0.0000000000000000e+00 0.0000000000000000e+00 0.0000000000000000e+00 0.0000000000000000e+00  2.6553703631137179e+01 7.8746368710102871e+01 0.0000000000000000e+00 7.8746368710102871e+01 1.1611073333324207e+01 0.0000000000000000e+00 0.0000000000000000e+00 0.0000000000000000e+00 0.0000000000000000e+00  2.2520732394213226e+01 4.0812760172962683e+01 0.0000000000000000e+00 4.0812760172962683e+01 3.0479713712480692e+01 0.0000000000000000e+00 0.0000000000000000e+00 0.0000000000000000e+00 0.0000000000000000e+00  1.5048290456692898e+01 8.9246319472449120e-01 0.0000000000000000e+00 8.9246319472449120e-01 3.3188037330787104e+01 0.0000000000000000e+00 0.0000000000000000e+00 0.0000000000000000e+00 0.0000000000000000e+00  2.9628070252995638e+01 2.1255043647941224e-01 0.0000000000000000e+00 2.1255043647941224e-01 2.6632758622265062e+01 0.0000000000000000e+00 0.0000000000000000e+00 0.0000000000000000e+00 0.00000000