<?xml version="1.0"?>
<VTKFile type="UnstructuredGrid"  version="0.1"  >
<UnstructuredGrid>
<Piece  NumberOfPoints="4835" NumberOfCells="9296">
<Points>
<DataArray  type="Float64"  NumberOfComponents="3"  format="ascii">0 1.5 0  -0 0.1307014797437256 0  0.01134725726173103 0.1483581566929452 0  0.04283342385313163 0.181379897845022 0  0.08000000000000007 0.2078460969082653 0  0.1215036888038188 0.2268001964915204 0  0.1658444388144116 0.2375571460514239 0  0.2114196597976982 0.2397281614039219 0  0.2565821445222626 0.23323477639765 0  0.2996996031204527 0.2183116788850844 0  0.3392136582970876 0.1954982284920806 0  0.3736961691452169 0.1656189627557069 0  0.4019008478794835 0.1297537961893434 0  0.4059948616314525 0.1218125174167552 0  0.4254856317806581 0.1498156710261111 0  0.4592156240140376 0.1818784194956707 0  0.498709345141744 0.2064950441012706 0  0.5423499175804942 0.222657737339227 0  0.588350691167096 0.2297047966493422 0  0.6348283888260526 0.2273477145954656 0  0.6798802081543086 0.2156829903938285 0  0.7216617223752013 0.1951881792237927 0  0.7584623913874079 0.1667023410626976 0  0.7879811633353602 0.1323170874919288 0  0.8152477706948351 0.1684239109116393 0  0.849341340905186 0.1995043068200599 0  0.8885654110558655 0.2237908228387656 0  0.9315842524819793 0.2404564107932048 0  0.9769329101341745 0.2489335440737586 0  1.023067089865825 0.2489335440737586 0  1.068415747518021 0.2404564107932048 0  1.111434588944135 0.2237908228387656 0  1.150658659094814 0.1995043068200599 0  1.184752229305165 0.1684239109116393 0  1.212554283932403 0.1316080407193389 0  1.233118057351089 0.09031041654678823 0  1.245743274920975 0.04593737945414259 0  1.25 0 0  1.36108673858246 0 0  1.36108673858246 0.02281345039300389 0  1.369721686332521 0.06761581364194322 0  1.386679492322819 0.1099743652145785 0  1.411347257261731 0.1483581566929452 0  1.442833423853132 0.181379897845022 0  1.48 0.2078460969082653 0  1.521503688803819 0.2268001964915204 0  1.565844438814412 0.2375571460514239 0  1.611419659797698 0.2397281614039219 0  1.656582144522263 0.23323477639765 0  1.699699603120453 0.2183116788850844 0  1.739213658297088 0.1954982284920806 0  1.765497292517293 0.1727233297951148 0  1.79 0.1905255888325765 0  1.832016261237511 0.2092324335849338 0  1.877003738081116 0.2187948169810202 0  1.922996261918884 0.2187948169810201 0  1.967983738762488 0.2092324335849338 0  2.01 0.1905255888325765 0  2.047208733398949 0.1634918616050267 0  2.077983738762488 0.1293127555043441 0  2.087980221556173 0.1119983394086949 0  2.111347257261731 0.1483581566929452 0  2.142833423853131 0.181379897845022 0  2.18 0.2078460969082653 0  2.221503688803819 0.2268001964915204 0  2.265844438814411 0.2375571460514239 0  2.311419659797698 0.2397281614039219 0  2.356582144522263 0.23323477639765 0  2.399699603120453 0.2183116788850844 0  2.439213658297088 0.1954982284920806 0  2.457172785224357 0.179936556425434 0  2.459215624014038 0.1818784194956707 0  2.498709345141744 0.2064950441012706 0  2.542349917580494 0.222657737339227 0  2.588350691167096 0.2297047966493422 0  2.634828388826053 0.2273477145954656 0  2.679880208154309 0.2156829903938285 0  2.721661722375202 0.1951881792237927 0  2.758462391387408 0.1667023410626976 0  2.788775591477674 0.1313916894718022 0  2.811360296672653 0.09070184667606328 0  2.825291886488074 0.04629865962039181 0  2.83 0 0  3 0 0  3 1.5 0  0 0.8023345134541607 0  0.4157402467060553 0.1358140942214332 0  3 0.75 0  1.5 1.5 0  0 0.4665179965989431 0  3 0.375 0  0 0.2986097381713344 0  0 0.21465560895753 0  0 0.1726785443506278 0  0 0.1516900120471767 0  2.25 1.5 0  0.75 1.5 0  1.169989811679434 0.9093651732355621 0  1.875 0.9142758100523694 0  0.5779365036100435 0.9330077223331824 0  2.43246936225428 0.7976868957014953 0  3 1.125 0  2.625 1.5 0  0.375 1.5 0  0 1.15116725672708 0  1.449253057879235 0.6213873587688492 0  0.7697361971202799 0.5943793911944208 0  0.3630076616442724 0.6080350564914153 0  2.069570984533324 0.5812833454367354 0  1.875 1.5 0  1.125 1.5 0  2.4375 1.173854331507092 0  0.8831005780031504 1.150004411874495 0  1.52207987625039 0.9714054497350916 0  2.0625 1.207137905026185 0  1.107793318688589 0.5766433232347881 0  1.3125 1.2274095306559 0  2.729985961523573 0.9375 0  2.711750443384031 0.5625 0  1.6875 1.243073622519403 0  1.760894209596057 0.6242614373612321 0  0.2643049832376852 0.9767508850906206 0  0.4566194854768236 1.209399638766609 0  2.728217267602858 1.228217267602858 0  2.374499195658668 0.518153287180279 0  2.169650674143702 0.9320836008992801 0  0.8550719231757007 0.8663457099410541 0  1.303567858855371 0.4078893824383345 0  0.2133194436665546 1.297827371069245 0  0.5308017499037517 0.4517023193912283 0  1.083077097725883 1.270382833575872 0  0.6830238102386342 1.274223132985906 0  2.250983943328481 0.6895458766515071 0  1.81089184968521 0.4192208869708923 0  1.679274712803154 0.8238291020339636 0  1.5785148524717 0.4510287526682343 0  0 0.6344262550265519 0  0.2138866804674432 0.765685327335986 0  0.5683532856219899 0.6602211278972628 0  0.9375 1.5 0  0.93201471049342 0.4568525359126817 0  1.262687644113192 0.7198627504483751 0  0.4154000952342595 0.8069446327163143 0  0.2139559556345817 0.4540330649264536 0  2.06977986811652 0.3813318272583126 0  0.7200651071201811 0.4061566188086219 0  1.932157822851692 0.7243325602448901 0  0.9441947922338874 0.689010158618046 0  3 1.3125 0  2.8125 1.5 0  0.5625 1.5 0  1.865575888969794 1.126762336039809 0  1.691368628814911 1.054521333692312 0  2.243682835689564 1.11932177110543 0  2.294933652681559 1.30886281903233 0  2.4375 1.5 0  2.385653526545621 0.9864303388879195 0  2.560603055863368 1.320052196970997 0  2.605098352881707 1.08210421072607 0  2.797310903081369 0.7462827406561878 0  1.497248537655819 1.30111187331848 0  1.6875 1.5 0  3 0.5625 0  3 0.9375 0  1.3125 1.5 0  2.0625 1.5 0  3 0.1875 0  0.1875 1.5 0  0.9978323986844071 0.9954535003819682 0  0.7455388243606953 1.020382929522352 0  1.904625246064701 1.312514164033404 0  1.15622562020362 1.097022204090454 0  1.332774827327096 1.015638362851981 0  2.617489052932561 0.7904306825848915 0  2.798834931624827 0.3810601956207291 0  2.518702939674024 0.6340258449062608 0  1.42862153170688 0.8082655083169574 0  2.016051725629557 1.02698392558818 0  2.557580898838836 0.4303899543284488 0  0.9143579924460792 1.324371521638632 0  0.6907201107072946 0.792483910827579 0  0 1.32558362836354 0  0 0.9767508850906206 0  0.6046140448732628 1.120294499938289 0  1.129353874055204 0.4037183319394277 0  2.240578803971554 0.4086758810341738 0  1.544887400155686 1.138911442832316 0  2.828734594747712 1.083464790593587 0  0.401358428169992 0.3487630281226344 0  0.1737226743516005 1.126953194380642 0  1.219293394173851 1.36370476532795 0  2.095593203128485 0.7438044944874065 0  1.099947866649755 0.7404984974094087 0  0.4225987016856009 0.9654760294046846 0  1.265404984472296 0.5615537191035901 0  1.908099381276504 0.55154028811489 0  1.605233217264331 0.6055204891939014 0  0.2070403235706232 0.6098576665994301 0  0.46875 1.369568887475175 0  2.529999076220762 0.9220559311443081 0  0.3296306516835505 1.118561581461605 0  2.136891098712708 1.353568952513092 0  0.1250262355603041 0.8895426992723907 0  2.286468869522623 0.8363516131379349 0  2.03024950667879 0.8782110935537075 0  2.71875 1.380113023166798 0  2.851157149000174 1.312122703709591 0  2.855875221692015 0.6072101925796368 0  1.766081959310164 1.371536811259701 0  2.417227117459742 0.3724437385102629 0  1.365276810157265 1.363519047380362 0  1.451310499971155 0.3640091006357036 0  2.211012611580202 0.5503989260541815 0  1.306789156675977 0.2570819477057019 0  2.872418607762505 0.256220469598872 0  2.896902016958361 0.84375 0  0.6487095286926469 0.5256523827174592 0  1.021477811485347 1.13286821063065 0  1.622350554793597 1.371881362989231 0  1.297557547403682 0.854343314165958 0  0.5529398034156436 0.7974238691464364 0  1.000783388185185 0.848708117631217 0  0.8152141294141361 0.735251676415229 0  2.383386472338196 0.654760318649699 0  1.031024064601143 1.39833771698851 0  1.812756223744312 0.7919737740986065 0  2.902150447032281 0.46875 0  1.558478314279628 0.7430881247578319 0  2.428095049619715 1.306700780290589 0  0.3309906154406318 1.369459454266083 0  0.117457385934373 0.361895434578648 0  0.4016309285334721 0.4812757168525422 0  1.933925005895449 0.3564723397117748 0  0.7479761182598068 1.155601287121883 0  0.09711831342126455 1.23837544254531 0  1.384025258268523 0.5094422387329146 0  2.188092881729461 1.235445092789212 0  0.116614462422195 1.388212202394539 0  0.5993432477835932 1.374610260003488 0  0.8731519049868882 1.022757560732678 0  0.1109021857268646 0.5275252102504697 0  1.703820060431276 0.5017282682884084 0  0.1118224159219883 0.6921053365242938 0  0.3267069786561488 1.244030051070764 0  2.878127312164905 0.9679608000003684 0  1.408346090782441 1.129729637108486 0  0.8047358880839842 0.3153623688883521 0  2.6405066654848 0.6664933064830099 0  0.4805702216488833 1.081724858267193 0  2.668084598222495 0.3562155878484895 0  2.138121375887776 1.052804865904559 0  1.96875 1.5 0  0.4891907154726056 0.5668366043293971 0  0.1473863332166031 1.0086557402922 0  2.558860649578938 1.196592162044302 0  1.717555244640741 0.3396535732296396 0  0.84375 1.5 0  0.7839942032523698 1.367093097528149 0  3 1.40625 0  2.484124862262918 1.060073596740424 0  3 1.21875 0  2.34375 1.5 0  0.8196209764267471 1.251369088398821 0  2.023202270335131 1.319214170177879 0  0.5721208504581607 1.233781127425821 0  1.984735816620384 0.462442873488178 0  0.6955333931194808 0.9118686683832042 0  1.19123464962554 1.213906677421382 0  0.8929803638185398 0.5752987850534633 0  1.566736823664244 0.8614646887466211 0  1.808684073906441 1.017786844668201 0  1.719105195888173 0.9374041347540488 0  1.671476674178274 0.70476362875428 0  1.218260709491531 0.330629071498573 0  2.839021519587611 1.19788439058923 0  0.5170070740021471 0.3361933937254621 0  1.393527188254162 0.91788143976
[...]
<PointData  Tensors="f_264"> 
<DataArray  type="Float64"  Name="f_264"  NumberOfComponents="9" format="ascii">-3.1434686072372280e+00 -6.7702569491964990e+00 0.0000000000000000e+00 -6.7702569491964990e+00 -4.3625598089627395e+00 0.0000000000000000e+00 0.0000000000000000e+00 0.0000000000000000e+00 0.0000000000000000e+00  2.8594701206576246e+01 -1.6606454769851093e+00 0.0000000000000000e+00 -1.6606454769851093e+00 2.1156080358588014e+01 0.0000000000000000e+00 0.0000000000000000e+00 0.0000000000000000e+00 0.0000000000000000e+00  2.9908633887202775e+01 -1.4017592980996110e+00 0.0000000000000000e+00 -1.4017592980996110e+00 2.5847592469636194e+01 0.0000000000000000e+00 0.0000000000000000e+00 0.0000000000000000e+00 0.0000000000000000e+00  3.4391939760291763e+01 -6.1247597302952439e+00 0.0000000000000000e+00 -6.1247597302952439e+00 1.6571129067658585e+01 0.0000000000000000e+00 0.0000000000000000e+00 0.0000000000000000e+00 0.0000000000000000e+00  4.7025733428695894e+01 -1.2734593848835704e+01 0.0000000000000000e+00 -1.2734593848835704e+01 4.7083369657636869e+00 0.0000000000000000e+00 0.0000000000000000e+00 0.0000000000000000e+00 0.0000000000000000e+00  3.9651771315148771e+01 -1.2382733993352707e+01 0.0000000000000000e+00 -1.2382733993352707e+01 1.3266029140470041e+00 0.0000000000000000e+00 0.0000000000000000e+00 0.0000000000000000e+00 0.0000000000000000e+00  1.3781280469697800e+01 6.7228282081571811e+00 0.0000000000000000e+00 6.7228282081571811e+00 2.0909956056110161e+01 0.0000000000000000e+00 0.0000000000000000e+00 0.0000000000000000e+00 0.0000000000000000e+00  2.4457724046084262e+01 3.5914554553839814e+01 0.0000000000000000e+00 3.5914554553839814e+01 2.0272310084160555e+01 0.0000000000000000e+00 0.0000000000000000e+00 0.0000000000000000e+00 0.0000000000000000e+00  3.1534624591485120e+01 1.7592070218969599e+01 0.0000000000000000e+00 1.7592070218969599e+01 1.6712751987988504e+01 0.0000000000000000e+00 0.0000000000000000e+00 0.0000000000000000e+00 0.0000000000000000e+00  6.9167049420127480e+00 -6.0334885449747011e-01 0.0000000000000000e+00 -6.0334885449747011e-01 4.1531191854902396e+01 0.0000000000000000e+00 0.0000000000000000e+00 0.0000000000000000e+00 0.0000000000000000e+00  -3.3945808168890088e+00 -4.1459163674436601e+00 0.0000000000000000e+00 -4.1459163674436601e+00 4.9424825280420762e+01 0.0000000000000000e+00 0.0000000000000000e+00 0.0000000000000000e+00 0.0000000000000000e+00  -4.8397948407570333e+00 -4.2499604635614974e+00 0.0000000000000000e+00 -4.2499604635614974e+00 4.6759803223788651e+01 0.0000000000000000e+00 0.0000000000000000e+00 0.0000000000000000e+00 0.0000000000000000e+00  2.4812689906459831e+01 3.9486835473163913e+00 0.0000000000000000e+00 3.9486835473163913e+00 2.9617890237180251e+01 0.0000000000000000e+00 0.0000000000000000e+00 0.0000000000000000e+00 0.0000000000000000e+00  2.4665191679241744e+01 1.2854014407569962e+00 0.0000000000000000e+00 1.2854014407569962e+00 1.7406526464037221e+01 0.0000000000000000e+00 0.0000000000000000e+00 0.0000000000000000e+00 0.0000000000000000e+00  3.4930064911540207e+01 9.6654186184915392e-01 0.0000000000000000e+00 9.6654186184915392e-01 7.6788759859901976e+00 0.0000000000000000e+00 0.0000000000000000e+00 0.0000000000000000e+00 0.0000000000000000e+00  3.1268137763363782e+01 -3.7342831436910413e+00 0.0000000000000000e+00 -3.7342831436910413e+00 1.1472637544041008e+01 0.0000000000000000e+00 0.0000000000000000e+00 0.0000000000000000e+00 0.0000000000000000e+00  1.2809791796642891e+01 1.3705074635344808e+01 0.0000000000000000e+00 1.3705074635344808e+01 3.2329225305885771e+01 0.0000000000000000e+00 0.0000000000000000e+00 0.0000000000000000e+00 0.0000000000000000e+00  1.5660109490113413e+01 2.6473035381467156e+01 0.0000000000000000e+00 2.6473035381467156e+01 3.8583502007362199e+01 0.0000000000000000e+00 0.0000000000000000e+00 0.0000000000000000e+00 0.0000000000000000e+00  1.8237154129512760e+01 8.4914779208876521e+00 0.0000000000000000e+00 8.4914779208876521e+00 3.2940877376895493e+01 0.0000000000000000e+00 0.0000000000000000e+00 0.0000000000000000e+00 0.0000000000000000e+00  1.7272950826201441e+01 -2.3860610428063268e+01 0.0000000000000000e+00 -2.3860610428063268e+01 3.3108522719352699e+01 0.0000000000000000e+00 0.0000000000000000e+00 0.0000000000000000e+00 0.0000000000000000e+00  2.7655353097654167e+00 -1.7751201650594048e+01 0.0000000000000000e+00 -1.7751201650594048e+01 3.4973805064786823e+01 0.0000000000000000e+00 0.0000000000000000e+00 0.0000000000000000e+00 0.0000000000000000e+00  2.4169379572253074e+01 -5.2462878514305133e+00 0.0000000000000000e+00 -5.2462878514305133e+00 2.0404781108953589e+01 0.0000000000000000e+00 0.0000000000000000e+00 0.0000000000000000e+00 0.0000000000000000e+00  3.7871831055004016e+01 -1.0320777964295140e+00 0.0000000000000000e+00 -1.0320777964295140e+00 6.2484965726213497e+00 0.0000000000000000e+00 0.0000000000000000e+00 0.0000000000000000e+00 0.0000000000000000e+00  2.1700723576149365e+01 5.3044472600125903e-01 0.0000000000000000e+00 5.3044472600125903e-01 2.1757570749016935e+01 0.0000000000000000e+00 0.0000000000000000e+00 0.0000000000000000e+00 0.0000000000000000e+00  -7.3389688560949438e+00 2.4703757950499496e+00 0.0000000000000000e+00 2.4703757950499496e+00 5.1021869649805062e+01 0.0000000000000000e+00 0.0000000000000000e+00 0.0000000000000000e+00 0.0000000000000000e+00  -1.0544455777584686e+01 7.9028142747488550e+00 0.0000000000000000e+00 7.9028142747488550e+00 5.3438895124210426e+01 0.0000000000000000e+00 0.0000000000000000e+00 0.0000000000000000e+00 0.0000000000000000e+00  4.2958009434053901e+00 7.0311221029400128e+00 0.0000000000000000e+00 7.0311221029400128e+00 4.0537651862325070e+01 0.0000000000000000e+00 0.0000000000000000e+00 0.0000000000000000e+00 0.0000000000000000e+00  1.3337962708362141e+01 -6.6394297203050918e+00 0.0000000000000000e+00 -6.6394297203050918e+00 2.3579211329951697e+01 0.0000000000000000e+00 0.0000000000000000e+00 0.0000000000000000e+00 0.0000000000000000e+00  2.5167053252042162e+01 -1.9449647236923919e+01 0.0000000000000000e+00 -1.9449647236923919e+01 1.9269512804376362e+01 0.0000000000000000e+00 0.0000000000000000e+00 0.0000000000000000e+00 0.0000000000000000e+00  2.5879091725128657e+01 -7.9827658143387294e+00 0.0000000000000000e+00 -7.9827658143387294e+00 1.3488685409245127e+01 0.0000000000000000e+00 0.0000000000000000e+00 0.0000000000000000e+00 0.0000000000000000e+00  3.4781643150551417e+01 1.3007619041850026e+01 0.0000000000000000e+00 1.3007619041850026e+01 5.8243675123829615e+00 0.0000000000000000e+00 0.0000000000000000e+00 0.0000000000000000e+00 0.0000000000000000e+00  4.5704450618466950e+01 1.8388002803148272e+01 0.0000000000000000e+00 1.8388002803148272e+01 -5.9928104439055918e+00 0.0000000000000000e+00 0.0000000000000000e+00 0.0000000000000000e+00 0.0000000000000000e+00  2.0729188552963535e+01 9.6162631799373504e+00 0.0000000000000000e+00 9.6162631799373504e+00 1.7861721276306351e+01 0.0000000000000000e+00 0.0000000000000000e+00 0.0000000000000000e+00 0.0000000000000000e+00  -4.6174458093355925e-01 7.3275131500000290e+00 0.0000000000000000e+00 7.3275131500000290e+00 4.1138470991418373e+01 0.0000000000000000e+00 0.0000000000000000e+00 0.0000000000000000e+00 0.0000000000000000e+00  -9.4261468985329202e+00 1.8953871972346739e+01 0.0000000000000000e+00 1.8953871972346739e+01 5.3916725387058364e+01 0.0000000000000000e+00 0.0000000000000000e+00 0.0000000000000000e+00 0.0000000000000000e+00  -6.8574235368314973e+00 2.7249163714052454e+01 0.0000000000000000e+00 2.7249163714052454e+01 5.0508720010099452e+01 0.0000000000000000e+00 0.0000000000000000e+00 0.0000000000000000e+00 0.0000000000000000e+00  1.1286278920579271e+01 2.0394044078514188e+01 0.0000000000000000e+00 2.0394044078514188e+01 3.7248215429839433e+01 0.0000000000000000e+00 0.0000000000000000e+00 0.0000000000000000e+00 0.0000000000000000e+00  1.3238649461300573e+01 4.8763648674605218e+00 0.0000000000000000e+00 4.8763648674605218e+00 3.8162001950587140e+01 0.0000000000000000e+00 0.0000000000000000e+00 0.0000000000000000e+00 0.0000000000000000e+00  2.4406304538562079e+01 -1.4346594857880042e+00 0.0000000000000000e+00 -1.4346594857880042e+00 2.3197985092373557e+01 0.0000000000000000e+00 0.0000000000000000e+00 0.0000000000000000e+00 0.0000000000000000e+00  2.7831486304351309e+01 7.3726453352242300e+00 0.0000000000000000e+00 7.3726453352242300e+00 2.0752916063711147e+01 0.0000000000000000e+00 0.0000000000000000e+00 0.0000000000000000e+00 0.0000000000000000e+00  3.3693022037480347e+01 1.2779362477192995e+01 0.0000000000000000e+00 1.2779362477192995e+01 1.0632283948645448e+01 0.0000000000000000e+00 0.0000000000000000e+00 0.0000000000000000e+00 0.0000000000000000e+00  2.7105741824263994e+01 8.6708084416271181e+00 0.0000000000000000e+00 8.6708084416271181e+00 1.4471779270533288e+01 0.0000000000000000e+00 0.0000000000000000e+00 0.0000000000000000e+00 0.0000000000000000e+00  1.1843853815324673e+01 3.1717040875765203e+00 0.0000000000000000e+00 3.1717040875765203e+00 2.9338133074731321e+01 0.0000000000000000e+00 0.0000000000000000e+00 0.0000000000000000e+00 0.0000000000000000e+00  -9.9743143689529634e-01 5.4143548605676193e+00 0.0000000000000000e+00 5.4143548605676193e+00 4.7390720942502526e+01 0.0000000000000000e+00 0.0000000000000000e+00 0.0000000000000000e+00 0.0000000000000000e+00  -1.2836837494611906e+00 1.8514141980669596e+00 0.0000000000000000e+00 1.8514141980669596e+00 3.7514016324758842e+01 0.0000000000000000e+00 0.0000000000000000e+00 0.0000000000000000e+00 0.0000000000000000e+00  6.0572734040472653e+00 -8.9173847268223660e+00 0.0000000000000000e+00 -8.9173847268223660e+00 2.8928172333760234e+01 0.0000000000000000e+00 0.0000000000000000e+00 0.0000000000000000e+00 0.0000000000000000e+00  2.3007850167438452e+01 -2.3804842253470586e+01 0.0000000000000000e+00 -2.3804842253470586e+01 9.8749100613308656e+00 0.0000000000000000e+00 0.0000000000000000e+00 0.0000000000000000e+00 0.0000000000000000e+00  2.2699181097717794e+01 -1.7018487442830679e+01 0.0000000000000000e+00 -1.7018487442830679e+01 1.0665735356537516e+01 0.0000000000000000e+00 0.0000000000000000e+00 0.0000000000000000e+00 0.0000000000000000e+00  3.6916335610601202e+01 8.4154681901593218e+00 0.0000000000000000e+00 8.4154681901593218e+00 -2.8334559375639945e-01 0.0000000000000000e+00 0.0000000000000000e+00 0.0000000000000000e+00 0.0000000000000000e+00  3.4775410303891363e+01 1.0135371801039087e+01 0.0000000000000000e+00 1.0135371801039087e+01 7.0600968360325844e-01 0.0000000000000000e+00 0.0000000000000000e+00 0.0000000000000000e+00 0.0000000000000000e+00  4.4868577666828394e+01 1.0857530490149006e+01 0.0000000000000000e+00 1.0857530490149006e+01 -1.6677587554908775e+00 0.0000000000000000e+00 0.0000000000000000e+00 0.0000000000000000e+00 0.0000000000000000e+00  2.3345145929985105e+01 1.2454116451073675e+01 0.0000000000000000e+00 1.2454116451073675e+01 1.1769307162989351e+01 0.0000000000000000e+00 0.0000000000000000e+00 0.0000000000000000e+00 0.0000000000000000e+00  1.0008608152489112e+01 3.5527317723884768e+00 0.0000000000000000e+00 3.5527317723884768e+00 2.7067830548208221e+01 0.0000000000000000e+00 0.0000000000000000e+00 0.0000000000000000e+00 0.0000000000000000e+00  1.5324471080861040e+01 -1.2328498290239988e+01 0.0000000000000000e+00 -1.2328498290239986e+01 2.0493594272043236e+01 0.0000000000000000e+00 0.0000000000000000e+00 0.0000000000000000e+00 0.0000000000000000e+00  2.8445160905815253e+01 -2.5307645309878151e+01 0.0000000000000000e+00 -2.5307645309878151e+01 7.9796923160513185e+00 0.0000000000000000e+00 0.0000000000000000e+00 0.0000000000000000e+00 0.0000000000000000e+00  2.4216981210346876e+01 -9.2268101071903903e+00 0.0000000000000000e+00 -9.2268101071903903e+00 9.5908985430094269e+00 0.0000000000000000e+00 0.0000000000000000e+00 0.0000000000000000e+00 0.0000000000000000e+00  3.2718155605610058e+01 9.6241133601399600e+00 0.0000000000000000e+00 9.6241133601399600e+00 4.6158249352919309e+00 0.0000000000000000e+00 0.0000000000000000e+00 0.0000000000000000e+00 0.0000000000000000e+00  5.0674746172112286e+01 2.1886510540558628e+01 0.0000000000000000e+00 2.1886510540558628e+01 -1.9509575642401089e+01 0.0000000000000000e+00 0.0000000000000000e+00 0.0000000000000000e+00 0.0000000000000000e+00  3.7000666715784590e+01 2.8965430902237794e+00 0.0000000000000000e+00 2.8965430902237794e+00 2.0998875600426312e+00 0.0000000000000000e+00 0.0000000000000000e+00 0.0000000000000000e+00 0.0000000000000000e+00  2.4337887814980665e+01 3.9690511541066651e+00 0.0000000000000000e+00 3.9690511541066651e+00 1.5524712083016476e+01 0.0000000000000000e+00 0.0000000000000000e+00 0.0000000000000000e+00 0.0000000000000000e+00  2.0728104282479965e+01 3.0583959895413710e+00 0.0000000000000000e+00 3.0583959895413710e+00 1.4440208187980220e+01 0.0000000000000000e+00 0.0000000000000000e+00 0.0000000000000000e+00 0.0000000000000000e+00  1.8840069447438363e+01 -2.3537228675256268e+00 0.0000000000000000e+00 -2.3537228675256268e+00 2.1109751928197657e+01 0.0000000000000000e+00 0.0000000000000000e+00 0.0000000000000000e+00 0.0000000000000000e+00  2.9868684390099233e+01 -9.4359738425112045e+00 0.0000000000000000e+00 -9.4359738425112045e+00 6.4442511600229979e+00 0.0000000000000000e+00 0.0000000000000000e+00 0.0000000000000000e+00 0.0000000000000000e+00  4.1122897272943490e+01 -1.3957661777575662e+01 0.0000000000000000e+00 -1.3957661777575662e+01 -6.1300970637353140e+00 0.0000000000000000e+00 0.0000000000000000e+00 0.0000000000000000e+00 0.0000000000000000e+00  3.4266492201237689e+01 -1.9755084112019347e+01 0.0000000000000000e+00 -1.9755084112019347e+01 -6.1070737753202025e+00 0.0000000000000000e+00 0.0000000000000000e+00 0.0000000000000000e+00 0.0000000000000000e+00  2.2945660622456568e+01 5.0462929141620965e+00 0.0000000000000000e+00 5.0462929141620965e+00 4.6592634853743817e+00 0.0000000000000000e+00 0.0000000000000000e+00 0.0000000000000000e+00 0.0000000000000000e+00  1.7682688379218877e+01 1.7599124316122499e+01 0.0000000000000000e+00 1.7599124316122499e+01 1.5118769125521828e+01 0.0000000000000000e+00 0.0000000000000000e+00 0.0000000000000000e+00 0.0000000000000000e+00  3.8000567909038532e+00 8.1480431576834782e+00 0.0000000000000000e+00 8.1480431576834782e+00 1.7065808756344676e+01 0.0000000000000000e+00 0.0000000000000000e+00 0.0000000000000000e+00 0.0000000000000000e+00  -6.1585129957541209e+00 -1.1234795660438859e+01 0.0000000000000000e+00 -1.1234795660438859e+01 2.8465946859668804e+01 0.0000000000000000e+00 0.0000000000000000e+00 0.0000000000000000e+00 0.0000000000000000e+00  -1.2406086616661211e+01 -1.0539543709326750e+01 0.0000000000000000e+00 -1.0539543709326749e+01 3.3862199807641538e+01 0.0000000000000000e+00 0.0000000000000000e+00 0.0000000000000000e+00 0.0000000000000000e+00  8.5401212834918301e+00 -6.0653623985646004e+00 0.0000000000000000e+00 -6.0653623985646004e+00 2.0370624363364445e+01 0.0000000000000000e+00 0.0000000000000000e+00 0.0000000000000000e+00 0.0000000000000000e+00  2.6933287379358120e+01 -1.0607417663317603e+01 0.0000000000000000e+00 -1.0607417663317603e+01 -1.2165041948097801e+00 0.0000000000000000e+00 0.0000000000000000e+00 0.0000000000000000e+00 0.0000000000000000e+00  3.5939125946119553e+01 -1.9327450010571070e+01 0.0000000000000000e+00 -1.9327450010571070e+01 -1.0774842670686372e+01 0.0000000000000000e+00 0.0000000000000000e+00 0.0000000000000000e+00 0.0000000000000000e+00  2.5592610902215242e+01 -2.3302430327437918e+01 0.0000000000000000e+00 -2.3302430327437918e+01 -1.0143892652585061e+01 0.0000000000000000e+00 0.0000000000000000e+00 0.0000000000000000e+00 0.0000000000000000e+00  1.5311159903912007e+01 -3.5932181271529848e+00 0.0000000000000000e+00 -3.5932181271529848e+00 3.8966973308575263e+00 0.0000000000000000e+00 0.0000000000000000e+00 0.0000000000000000e+00 0.0000000000000000e+00  5.7482113553158847e+00 5.4114415361652202e-01 0.0000000000000000e+00 5.4114415361652202e-01 1.4470516886043180e+01 0.0000000000000000e+00 0.0000000000000000e+00 0.0000000000000000e+00 0.0000000000000000e+00  -2.3336694537364178e+01 -1.3827479672389671e+01 0.0000000000000000e+00 -1.3827479672389671e+01 4.1009075993400529e+01 0.0000000000000000e+00 0.0000000000000000e+00 0.0000000000000000e+00 0.0000000000000000e+00  -5.3138032605849311e+01 -2.4574163348381440e+01 0.0000000000000000e+00 -2.4574163348381440e+01 7.5040385576206049e+01 0.0000000000000000e+00 0.0000000000000000e+00 0.0000000000000000e+00 0.0000000000000000e+00  -8.0925447771244507e+01 -5.3077646549516109e+00 0.0000000000000000e+00 -5.3077646549516109e+00 7.3786386336491788e+01 0.0000000000000000e+00 0.0000000000000000e+00 0.0000000000000000e+00 0.0000000000000000e+00  -4.1818050880783488e+01 1.6926637284190264e+01 0.0000000000000000e+00 1.6926637284190264e+01 3.9660307693625285e+01 0.0000000000000000e+00 0.0000000000000000e+00 0.0000000000000000e+00 0.0000000000000000e+00  -1.2895591537320024e+01 1.3565130113150069e+01 0.0000000000000000e+00 1.3565130113150069e+01 1.8523435148779463e+01 0.0000000000000000e+00 0.0000000000000000e+00 0.0000000000000000e+00 0.0000000000000000e+00  -2.2672806103418273e+00 2.5810138676667211e+00 0.0000000000000000e+00 2.5810138676667211e+00 6.8147462811091151e+00 0.0000000000000000e+00 0.0000000000000000e+00 0.0000000000000000e+00 0.0000000000000000e+00  4.8511498525632044e+00 9.6883109172927762e-01 0.0000000000000000e+00 9.6883109172927762e-01 2.6802580810031045e+00 0.0000000000000000e+00 0.0000000000000000e+00 0.0000000000000000e+00 0.0000000000000000e+00  5.1979473888386480e+01 -7.8093883585161294e+01 0.0000000000000000e+00 -7.8093883585161294e+01 7.0729264148272264e+01 0.0000000000000000e+00 0.0000000000000000e+00 0.0000000000000000e+00 0.0000000000000000e+00  1.1336691298366455e+02 6.9523016827274247e+01 0.0000000000000000e+00 6.9523016827274247e+01 2.7187077183519023e+01 0.0000000000000000e+00 0.0000000000000000e+00 0.0000000000000000e+00 0.0000000000000000e+00  7.3213493491757768e+00 2.4939090270678950e+01 0.0000000000000000e+00 2.4939090270678950e+01 1.4048798846442320e+01 0.0000000000000000e+00 0.0000000000000000e+00 0.0000000000000000e+00 0.0000000000000000e+00  2.9408919681087490e+01 -5.6202008031455213e+00 0.0000000000000000e+00 -5.6202008031455213e+00 2.7557125667971437e+01 0.0000000000000000e+00 0.0000000000000000e+00 0.0000000000000000e+00 0.0000000000000000e+00  5.8164492039956421e+00 -7.4495269561706095e+01 0.0000000000000000e+00 -7.4495269561706095e+01 -4.1446851011451358e+00 0.0000000000000000e+00 0.0000000000000000e+00 0.0000000000000000e+00 0.0000000000000000e+00  -1.0597576329168756e+01 2.7909397439851880e-01 0.0000000000000000e+00 2.7909397439851880e-01 -1.7140732962508597e+01 0.0000000000000000e+00 0.0000000000000000e+00 0.0000000000000000e+00 0.0000000000000000e+00  1.7761134625746035e+01 2.5564437013588950e+01 0.0000000000000000e+00 2.5564437013588950e+01 1.7947352568978612e+01 0.0000000000000000e+00 0.0000000000000000e+00 0.0000000000000000e+00 0.0000000000000000e+00  4.5389400028913293e+01 -6.8265929648170683e+01 0.0000000000000000e+00 -6.8265929648170683e+01 -3.9329063974514683e-01 0.0000000000000000e+00 0.0000000000000000e+00 0.0000000000000000e+00 0.0000000000000000e+00  2.4489334882782604e+01 2.3517376721565427e+01 0.0000000000000000e+00 2.3517376721565427e+01 1.8622939241918523e+01 0.0000000000000000e+00 0.0000000000000000e+00 0.0000000000000000e+00 0.0000000000000000e+00  2.6705687042472491e+01 1.3743730602892036e+01 0.0000000000000000e+00 1.3743730602892036e+01 2.9427138768312989e+01 0.0000000000000000e+00 0.0000000000000000e+00 0.0000000000000000e+00 0.0000000000000000e+00  1.9171122176511627e+01 -2.2255447043652052e-01 0.0000000000000000e+00 -2.2255447043652052e-01 3.1946998016529580e+01 0.0000000000000000e+00 0.0000000000000000e+00 0.0000000000000000e+00 0.0000000000000000e+00  3.1899715843896484e+01 1.1217923612533797e+01 0.0000000000000000e+00 1.1217923612533797e+01 3.2283931285800868e+01 0.0000000000000000e+00 0.0000000000000000e+00 0.0000000000000000e+00 0.0000000000000000e+00  -1.483981095