<?xml version="1.0"?>
<VTKFile type="UnstructuredGrid"  version="0.1"  >
<UnstructuredGrid>
<Piece  NumberOfPoints="5089" NumberOfCells="9865">
<Points>
<DataArray  type="Float64"  NumberOfComponents="3"  format="ascii">0 1.5 0  0 0 0  0.1029058182573948 0 0  0.1029058182573948 0.02393156642875577 0  0.1251489251828899 0.06631226582407952 0  0.1645395112957465 0.09350162426854149 0  0.2120536680255323 0.0992708874098054 0  0.2568064746731156 0.08229838658936564 0  0.288545602565321 0.04647231720437685 0  0.3 0 0  0.51 0 0  0.5220577136594005 0.04499999999999999 0  0.555 0.07794228634059948 0  0.6 0.09 0  0.645 0.07794228634059946 0  0.6779422863405995 0.04499999999999999 0  0.6899999999999999 0 0  0.8924037639192813 0 0  0.8924037639192813 0.02287028598995353 0  0.9110081306187559 0.06465637775217206 0  0.9450000000000001 0.09526279441628825 0  0.9885018690405581 0.1093974084905101 0  1.033991869381244 0.1046162167924669 0  1.073604366699474 0.08174593080251337 0  1.100490000340686 0.04474103073833802 0  1.11 0 0  1.502905818257395 0 0  1.502905818257395 0.02393156642875577 0  1.52514892518289 0.06631226582407952 0  1.564539511295747 0.09350162426854149 0  1.612053668025532 0.0992708874098054 0  1.656806474673116 0.08229838658936564 0  1.688545602565321 0.04647231720437685 0  1.7 0 0  1.82324056211084 0 0  1.82324056211084 0.02253860454731437 0  1.847611141284377 0.06045996594834066 0  1.888614812938137 0.07918571535047463 0  1.933233201040151 0.07277055962836147 0  1.967300282626494 0.0432512653964478 0  1.98 0 0  2.202905818257395 0 0  2.202905818257395 0.02393156642875577 0  2.22514892518289 0.06631226582407952 0  2.264539511295746 0.09350162426854149 0  2.312053668025532 0.0992708874098054 0  2.356806474673115 0.08229838658936564 0  2.388545602565321 0.04647231720437685 0  2.4 0 0  2.51 0 0  2.522057713659401 0.04499999999999999 0  2.555 0.07794228634059948 0  2.6 0.09 0  2.645 0.07794228634059946 0  2.677942286340599 0.04499999999999999 0  2.69 0 0  3 0 0  3 1.5 0  0 0.75 0  1.5 1.5 0  0 0.375 0  0 0.1875 0  0.75 1.5 0  2.25 1.5 0  3 0.75 0  1.803364316093307 0.8194216192460635 0  0.7085714285714286 0.7914285714285714 0  2.396697907928333 0.698796196655595 0  1.26039230397729 0.6323879781298929 0  1.125 1.5 0  3 1.125 0  0.375 1.5 0  1.418284719659703 1.05567510076647 0  2.625 1.5 0  0 1.125 0  2.4375 1.120298797465005 0  0.4140309460188812 0.4815551607069073 0  0.9375 1.133540466589862 0  1.875 1.5 0  0.4143011358073044 1.085698864192695 0  2.042557228405723 0.4764057674039468 0  3 0.375 0  1.615235786026768 0.4839120951620492 0  0.9172436665953028 0.4786128535408891 0  2.136144598898015 0.9367443054342734 0  2.712089662802327 0.5625 0  1.752709466448716 1.168812671476193 0  2.696461986964791 0.9012929362807449 0  1.307422665144653 0.3094324321200764 0  2.0625 1.24476578117044 0  2.446405755792607 0.3860402512509704 0  0.3158723471199726 0.7836709721106835 0  1.018921994797561 0.831404696897531 0  1.521099871135537 0.7571953762650785 0  2.718190509848388 1.189592528269884 0  0.665307193508031 1.225469494285917 0  1.199897701782483 1.230481185797768 0  0.2233959957266646 1.276604004273335 0  0.6649397520368477 0.3607836886074089 0  0 0.5625 0  2.685543358160364 0.3192521589045413 0  1.775621962986754 0.2975552026784072 0  2.025654700292002 0.7195245521041802 0  0.1961827192748887 0.9897295638426992 0  1.25729921569077 0.8746334216075233 0  1.534142212444284 1.264044413891354 0  1.624439414641745 0.9597398592303362 0  2.117668421489377 0.2641528949307972 0  1.945094170902585 1.053880768096555 0  3 0.1875 0  0.6251639682912251 1.002291403912492 0  0.719601375969486 0.5727782913443102 0  0.2313942916225519 0.3335511938861402 0  0.4687668770508729 0.274248243200137 0  0.5143238740412669 0.6811446824633056 0  1.829350286632844 0.5059917594077202 0  1.082379929992235 0.3249418149194327 0  2.540679850598416 1.305492850437689 0  2.282283153018704 1.279796495628565 0  2.355666841619378 0.9154942188580675 0  0.2114722061938988 0.5448236655965607 0  3 1.3125 0  2.8125 1.5 0  2.263750685400308 0.5173381079832993 0  0.4343085727049624 1.296611441170993 0  1.6875 1.5 0  1.016037518489582 1.324553740130353 0  0.846292314151325 0.9469220663180872 0  1.122827752751251 1.035495517001457 0  1.3125 1.5 0  1.306452909128697 0 0  0.8906638629565067 0.6773217378320744 0  1.517175933126145 0.2981487507037606 0  0.7996957920902151 0.2224603600775558 0  1.446370464174038 0.5785990786868803 0  1.689965192988266 0.6625083927402473 0  0.4864273298880485 0.870473805626289 0  3 0.9375 0  2.831315819563651 1.036097903808422 0  1.106384347284952 0.5163011422226527 0  0.5625 1.5 0  0.9375 1.5 0  0.1875 1.5 0  2.0625 1.5 0  3 0.5625 0  0 0.9375 0  0 1.3125 0  2.4375 1.5 0  2.196044825237544 1.113880351688974 0  2.210431846521007 0.695834380790271 0  0.8262236946704767 1.326155809103077 0  2.523003751809735 0.8349453583788917 0  1.882533682486712 1.30904671408086 0  2.845 0 0  2.813607095438526 0.1837681344374856 0  2.298597604800397 0.280431891689246 0  1.972062138207083 0.8834951655964545 0  1.943392101370151 0.2475417334111557 0  2.828663592588797 0.4267055109367558 0  2.803791026183859 0.7364868569598708 0  2.523250359922468 0.5585816735541729 0  2.602935827188279 1.053310414780935 0  1.692458045540587 1.328962813001376 0  1.232271555781778 0.154950218767993 0  1.36985844680238 1.21899526865025 0  1.785321775315372 1.004919979330962 0  2.534633602602767 0.2439507161942105 0  0.7651985499724481 1.092302611968735 0  2.637828969450683 0.71279922663893 0  1.100469689258933 0.6843495375675052 0  1.315800235513153 0.4755545830105288 0  1.405546076805209 0.1782543944119986 0  2.826282129872177 1.326282129872177 0  0.575884497984488 0.4967904868667201 0  0.1516233666565383 0.826056857120972 0  0.3483704262380678 0.6272257636119053 0  1.568331672486121 1.108640197801574 0  1.475101554186818 0.9082985267599337 0  1.868470483419324 0.6670273102604994 0  0.3467545185571825 0.9433646607171683 0  2.15625 1.373787484318285 0  1.41742615593433 1.367603819494743 0  2.854904919456998 0.8828609574219635 0  0.9476741986655126 0.255395459587152 0  1.267450600339273 1.091056105706913 0  0.114311143675241 0.65625 0  0.65625 1.37859278398136 0  2.170651243108527 0.4023187025489676 0  1.21875 1.380886352874642 0  0.3798992233573569 0.1593768045411093 0  0.9831420651531181 0.9956358347774316 0  1.456186685150796 0.4319140716985383 0  2.586721317152155 0.4269308613840649 0  2.863979293145301 1.178604739864835 0  1.658646098314701 0.8045749301224775 0  1.383553643956373 0.7098158224076794 0  0.154006438477797 1.138458423126247 0  2.856044831401163 0.5977865618779903 0  0.553876003596687 1.130313370813194 0  2.680231675041409 1.360526450748891 0  2.486056782242186 0.9722817331473952 0  1.891212003911469 0.3789027676568836 0  0.8138227412155181 0.37102502168449 0  1.064674644221452 1.192903489156071 0  0.6045358160041144 0.2320910326486189 0  1.194008126159845 0.4081242368041457 0  2.138311355076408 0.5770795769918613 0  0.134142636330111 0.2313017261983794 0  0.8460209454012837 0.8084258449188535 0  0.1293517554287885 0.4305045409359897 0  0.3205820557512212 1.373790064297892 0  0.2928933613730453 1.155196229839076 0  2.404969940572298 1.358123451328196 0  0.9933877375830629 0.5899302104012978 0  2.090287791367255 0.1211621925433303 0  2.904889173308855 0.28125 0  0.1246766077328953 1.375323392267105 0  2.302041695038792 0.7931069109810627 0  2.389228836127323 0.5648368411465005 0  1.886839219693261 1.174850198523801 0  1.96875 1.5 0  2.005259577028834 1.368575570359887 0  2.58746882374347 1.183267841227943 0  1.646515580921743 0.3486369169127919 0  1.980147904783248 0.5942137934419368 0  2.07740167257538 1.055304717195479 0  1.57300338334685 0.6065157750282059 0  1.59375 1.5 0  1.679678032322464 0.2100937046526968 0  2.252673654577562 0.9960348417811178 0  2.17832845930892 0.8178435559778986 0  1.78125 1.5 0  2.021596890434516 0.349571947542988 0  1.79926971381977 0.1752587163176004 0  0.503878860142697 0.3943984894172995 0  1.146622573165596 0.8060813049917908 0  3 1.40625 0  2.649807995179342 0.2020005420916801 0  0.3438742656237004 0.2790576170649142 0  1.546875 1.386334759531577 0  3 0.09375 0  1.320989371181643 0.9800954309611291 0  1.270074893254929 0.7536540780084714 0  2.70770359261854 0.4387759707667409 0  0.5606072232931772 1.296106034499297 0  0.7858104720553775 1.211812834033452 0  2.317237622700128 1.09958886094401 0  2.518665098961854 0.68166123334458 0  1.747777558052355 0.4158756118164814 0  1.683029275145126 1.069756268641544 0  0.46875 1.5 0  2.407758410849746 0.2048845882413086 0  2.396684507181482 1.235853070423643 0  1.919569286509587 0.7755948020085885 0  2.290752654053557 0.4002939182457882 0  0.2367853577638227 0.6856443876677092 0  1.644821718344275 1.219632237269969 0  0 1.03125 0  0.5821665354391095 0.7878606619613046 0  0.6422016866915001 0.674771619551397 0  0.2917070890414653 0.4458139506278615 0  0.7912018819596407 0 0  0.1045102716700244 1.249819735557644 0  1.151091219660612 0.9224858968529193 0  2.719174284445647 1.071883664029489 0  0.7216906855953001 0.918545393630683 0  0.2528020696803429 0.8787006417214202 0  1.726437981314609 0.9055659975386789 0  1.466273966174817 1.158744006060248 0  0.500278661176367 0.9948136517426003 0  1.114706325735654 0.2023659607018325 0  1.193213601931895 0.2926984867334158 0  0.9725372994821596 0.3724679154862157 0  2.214714190066689 0.1991474088029779 0  2.411776451427861 0.8179674328277735 0  1.997105232295531 1.153439169094244 0  0.497834479014996 1.390464488336983 0  0.4532232073331143 0.5868543641678674 0  0.4094710929462204 0.7215160819073434 0  0.2730945637736263 0.1927345247561336 0  2.091452909128697 0 0  1.88727127931541 0.9574017932976476 0  0.7331675361580886 0.4562359341911597 0  0.808798696301996 0.1107204599928528 0  2.794056136375906 0.2935548935723623 0  2.172174128810919 1.263645408055929 0  2.266351953173893 1.389929090293708 0  0.9205129738298803 1.252177379624563 0  2.58760749
[...]
<PointData  Tensors="f_492"> 
<DataArray  type="Float64"  Name="f_492"  NumberOfComponents="9" format="ascii">1.0225769054049353e+01 -3.2592940897464220e+00 0.0000000000000000e+00 -3.2592940897464220e+00 -2.5103207556164943e+01 0.0000000000000000e+00 0.0000000000000000e+00 0.0000000000000000e+00 0.0000000000000000e+00  2.7408546441845946e+01 -1.4583450745566784e+00 0.0000000000000000e+00 -1.4583450745566784e+00 2.9874074774909094e+01 0.0000000000000000e+00 0.0000000000000000e+00 0.0000000000000000e+00 0.0000000000000000e+00  3.0123235779284968e+01 -2.9399892049239846e+00 0.0000000000000000e+00 -2.9399892049239846e+00 2.9966050971635902e+01 0.0000000000000000e+00 0.0000000000000000e+00 0.0000000000000000e+00 0.0000000000000000e+00  5.5844424884049452e+01 1.9346919873331554e+01 0.0000000000000000e+00 1.9346919873331554e+01 -6.6707282680282831e-01 0.0000000000000000e+00 0.0000000000000000e+00 0.0000000000000000e+00 0.0000000000000000e+00  8.4644015694310553e+01 5.4221986629622982e+00 0.0000000000000000e+00 5.4221986629622982e+00 -3.4947178020100765e+01 0.0000000000000000e+00 0.0000000000000000e+00 0.0000000000000000e+00 0.0000000000000000e+00  4.6058392754093894e+01 7.8352024440727934e+00 0.0000000000000000e+00 7.8352024440727934e+00 8.2039363799740639e-01 0.0000000000000000e+00 0.0000000000000000e+00 0.0000000000000000e+00 0.0000000000000000e+00  3.6972998203014591e+01 5.9193427922153610e+01 0.0000000000000000e+00 5.9193427922153610e+01 1.0936906982866139e+01 0.0000000000000000e+00 0.0000000000000000e+00 0.0000000000000000e+00 0.0000000000000000e+00  3.1599490917214265e+01 1.9713136357999598e+01 0.0000000000000000e+00 1.9713136357999598e+01 2.2608545145147328e+01 0.0000000000000000e+00 0.0000000000000000e+00 0.0000000000000000e+00 0.0000000000000000e+00  -4.8971685934130278e+00 2.0835849314019487e+01 0.0000000000000000e+00 2.0835849314019487e+01 5.7285535281562197e+01 0.0000000000000000e+00 0.0000000000000000e+00 0.0000000000000000e+00 0.0000000000000000e+00  3.3837011960683583e+01 3.8178828225473405e+00 0.0000000000000000e+00 3.8178828225473405e+00 3.2709306873510648e+01 0.0000000000000000e+00 0.0000000000000000e+00 0.0000000000000000e+00 0.0000000000000000e+00  1.4484979075512888e+01 -6.4427250986503957e+00 0.0000000000000000e+00 -6.4427250986503957e+00 4.3955060464932011e+01 0.0000000000000000e+00 0.0000000000000000e+00 0.0000000000000000e+00 0.0000000000000000e+00  -5.7951734699543564e+00 -3.2636299956639072e+00 0.0000000000000000e+00 -3.2636299956639072e+00 5.6479689527917436e+01 0.0000000000000000e+00 0.0000000000000000e+00 0.0000000000000000e+00 0.0000000000000000e+00  -3.0128660641677932e+01 1.7643458916352284e+01 0.0000000000000000e+00 1.7643458916352284e+01 6.7098358992181673e+01 0.0000000000000000e+00 0.0000000000000000e+00 0.0000000000000000e+00 0.0000000000000000e+00  -1.2209966075197789e+01 3.0939160763160070e+00 0.0000000000000000e+00 3.0939160763160070e+00 5.9337600100521840e+01 0.0000000000000000e+00 0.0000000000000000e+00 0.0000000000000000e+00 0.0000000000000000e+00  -2.3841767386795198e+01 -1.1774249289739153e+01 0.0000000000000000e+00 -1.1774249289739153e+01 6.2188513376045449e+01 0.0000000000000000e+00 0.0000000000000000e+00 0.0000000000000000e+00 0.0000000000000000e+00  4.7140696655440566e+00 2.5220899632880314e+00 0.0000000000000000e+00 2.5220899632880314e+00 4.7678513053342463e+01 0.0000000000000000e+00 0.0000000000000000e+00 0.0000000000000000e+00 0.0000000000000000e+00  1.3349662003752590e+01 3.9316182653441194e+00 0.0000000000000000e+00 3.9316182653441194e+00 3.8781017489246203e+01 0.0000000000000000e+00 0.0000000000000000e+00 0.0000000000000000e+00 0.0000000000000000e+00  2.0884151356631161e+01 3.9255253040057134e+00 0.0000000000000000e+00 3.9255253040057134e+00 2.4606739753352940e+01 0.0000000000000000e+00 0.0000000000000000e+00 0.0000000000000000e+00 0.0000000000000000e+00  -6.5144430387299215e+00 -2.3136681137290147e+01 0.0000000000000000e+00 -2.3136681137290147e+01 5.6809971974493820e+01 0.0000000000000000e+00 0.0000000000000000e+00 0.0000000000000000e+00 0.0000000000000000e+00  -1.2451474841738001e+01 -2.6218156251513044e+01 0.0000000000000000e+00 -2.6218156251513044e+01 5.7679871962717861e+01 0.0000000000000000e+00 0.0000000000000000e+00 0.0000000000000000e+00 0.0000000000000000e+00  2.0043632858270584e+01 -1.9281159469047431e+01 0.0000000000000000e+00 -1.9281159469047431e+01 2.6111880182639656e+01 0.0000000000000000e+00 0.0000000000000000e+00 0.0000000000000000e+00 0.0000000000000000e+00  3.1295460197226387e+01 -3.5555215434702497e+01 0.0000000000000000e+00 -3.5555215434702497e+01 1.4890414087411704e+01 0.0000000000000000e+00 0.0000000000000000e+00 0.0000000000000000e+00 0.0000000000000000e+00  5.6192872540053095e+01 -8.6350818332041985e+00 0.0000000000000000e+00 -8.6350818332041985e+00 -7.5088512920692834e+00 0.0000000000000000e+00 0.0000000000000000e+00 0.0000000000000000e+00 0.0000000000000000e+00  8.1141647312489923e+01 -5.3842711201234583e-01 0.0000000000000000e+00 -5.3842711201234583e-01 -3.5394234433562268e+01 0.0000000000000000e+00 0.0000000000000000e+00 0.0000000000000000e+00 0.0000000000000000e+00  7.1437823656903220e+01 -2.6646948191714255e+01 0.0000000000000000e+00 -2.6646948191714255e+01 -2.4888549289387953e+01 0.0000000000000000e+00 0.0000000000000000e+00 0.0000000000000000e+00 0.0000000000000000e+00  3.9694977311926365e+01 -1.2278831729385175e+01 0.0000000000000000e+00 -1.2278831729385175e+01 2.2868465130126694e+00 0.0000000000000000e+00 0.0000000000000000e+00 0.0000000000000000e+00 0.0000000000000000e+00  2.0232014330848404e+01 4.3134106094694156e+00 0.0000000000000000e+00 4.3134106094694156e+00 2.2323027183394835e+01 0.0000000000000000e+00 0.0000000000000000e+00 0.0000000000000000e+00 0.0000000000000000e+00  -3.5145168467607375e+00 -1.7699570456228663e+01 0.0000000000000000e+00 -1.7699570456228663e+01 4.6462450758784883e+01 0.0000000000000000e+00 0.0000000000000000e+00 0.0000000000000000e+00 0.0000000000000000e+00  -2.2644875970495746e+00 -1.6561753590237551e+01 0.0000000000000000e+00 -1.6561753590237551e+01 4.8245258835312974e+01 0.0000000000000000e+00 0.0000000000000000e+00 0.0000000000000000e+00 0.0000000000000000e+00  3.5884991599551086e+01 -3.7802131918071048e+01 0.0000000000000000e+00 -3.7802131918071048e+01 1.1679540189342433e+01 0.0000000000000000e+00 0.0000000000000000e+00 0.0000000000000000e+00 0.0000000000000000e+00  2.4988540794362475e+01 -2.2122140958357356e+01 0.0000000000000000e+00 -2.2122140958357356e+01 7.5140308660390676e-01 0.0000000000000000e+00 0.0000000000000000e+00 0.0000000000000000e+00 0.0000000000000000e+00  5.5488500640176611e+01 3.3417110955443361e+00 0.0000000000000000e+00 3.3417110955443365e+00 -2.0277724426996411e+01 0.0000000000000000e+00 0.0000000000000000e+00 0.0000000000000000e+00 0.0000000000000000e+00  7.5211544586475526e+01 -3.7663889979417959e+01 0.0000000000000000e+00 -3.7663889979417959e+01 -3.4303476199030015e+01 0.0000000000000000e+00 0.0000000000000000e+00 0.0000000000000000e+00 0.0000000000000000e+00  1.8205677053863248e+01 -2.1177735653763854e+00 0.0000000000000000e+00 -2.1177735653763854e+00 2.6792800850579251e+01 0.0000000000000000e+00 0.0000000000000000e+00 0.0000000000000000e+00 0.0000000000000000e+00  2.0978684242535131e+01 1.9893117471278101e+00 0.0000000000000000e+00 1.9893117471278101e+00 2.4489694050811224e+01 0.0000000000000000e+00 0.0000000000000000e+00 0.0000000000000000e+00 0.0000000000000000e+00  1.7448513195357492e+01 -8.6596031469697081e+00 0.0000000000000000e+00 -8.6596031469697081e+00 2.9073448310400391e+01 0.0000000000000000e+00 0.0000000000000000e+00 0.0000000000000000e+00 0.0000000000000000e+00  2.6481171580860174e+01 -1.6259760410573506e+01 0.0000000000000000e+00 -1.6259760410573506e+01 1.4527508535088904e+01 0.0000000000000000e+00 0.0000000000000000e+00 0.0000000000000000e+00 0.0000000000000000e+00  2.7950017525674525e+01 -3.2776971470187497e+01 0.0000000000000000e+00 -3.2776971470187497e+01 6.2201531602624716e+00 0.0000000000000000e+00 0.0000000000000000e+00 0.0000000000000000e+00 0.0000000000000000e+00  3.5476948663928752e+01 -1.8664230354336667e+01 0.0000000000000000e+00 -1.8664230354336667e+01 2.7326955957423031e+00 0.0000000000000000e+00 0.0000000000000000e+00 0.0000000000000000e+00 0.0000000000000000e+00  5.6061543766459529e+01 -1.4036260314960847e+01 0.0000000000000000e+00 -1.4036260314960847e+01 -2.2173391393416075e+01 0.0000000000000000e+00 0.0000000000000000e+00 0.0000000000000000e+00 0.0000000000000000e+00  4.5419231912543317e+01 -2.2249277173527080e+00 0.0000000000000000e+00 -2.2249277173527080e+00 -9.1118509649544723e+00 0.0000000000000000e+00 0.0000000000000000e+00 0.0000000000000000e+00 0.0000000000000000e+00  2.0606981944969156e+01 -3.4149275798039014e+00 0.0000000000000000e+00 -3.4149275798039014e+00 2.2076288593119283e+01 0.0000000000000000e+00 0.0000000000000000e+00 0.0000000000000000e+00 0.0000000000000000e+00  5.1502713665036289e+01 1.9712259024297641e+01 0.0000000000000000e+00 1.9712259024297641e+01 -1.1362093361553226e+01 0.0000000000000000e+00 0.0000000000000000e+00 0.0000000000000000e+00 0.0000000000000000e+00  6.3261821180759824e+01 1.2270307326121291e+01 0.0000000000000000e+00 1.2270307326121291e+01 -3.1895986078399726e+01 0.0000000000000000e+00 0.0000000000000000e+00 0.0000000000000000e+00 0.0000000000000000e+00  4.7857983004329839e+01 -6.1803860684005558e+00 0.0000000000000000e+00 -6.1803860684005558e+00 -1.6377319972245704e+01 0.0000000000000000e+00 0.0000000000000000e+00 0.0000000000000000e+00 0.0000000000000000e+00  2.4470490571535009e+01 3.0143985457879058e+01 0.0000000000000000e+00 3.0143985457879058e+01 6.0690870353780397e+00 0.0000000000000000e+00 0.0000000000000000e+00 0.0000000000000000e+00 0.0000000000000000e+00  2.9197621206097246e-01 9.9206560870572940e+00 0.0000000000000000e+00 9.9206560870572940e+00 3.4874385474023043e+01 0.0000000000000000e+00 0.0000000000000000e+00 0.0000000000000000e+00 0.0000000000000000e+00  -1.6785571275287200e+01 2.6450927273404645e+01 0.0000000000000000e+00 2.6450927273404645e+01 4.3843946377048866e+01 0.0000000000000000e+00 0.0000000000000000e+00 0.0000000000000000e+00 0.0000000000000000e+00  7.2398340739338050e+00 -8.7043706668468595e+00 0.0000000000000000e+00 -8.7043706668468595e+00 2.7258637149534241e+01 0.0000000000000000e+00 0.0000000000000000e+00 0.0000000000000000e+00 0.0000000000000000e+00  4.7065960886092775e+01 5.0873371200123794e+00 0.0000000000000000e+00 5.0873371200123794e+00 -1.8346257449228887e+01 0.0000000000000000e+00 0.0000000000000000e+00 0.0000000000000000e+00 0.0000000000000000e+00  6.6109471957882889e+01 2.0981585251452966e+01 0.0000000000000000e+00 2.0981585251452966e+01 -4.5857241610564685e+01 0.0000000000000000e+00 0.0000000000000000e+00 0.0000000000000000e+00 0.0000000000000000e+00  6.2773224472923246e+01 -2.2259297936901135e+01 0.0000000000000000e+00 -2.2259297936901135e+01 -4.9282531166679561e+01 0.0000000000000000e+00 0.0000000000000000e+00 0.0000000000000000e+00 0.0000000000000000e+00  1.3303412592446204e+01 -1.1929004413203096e+01 0.0000000000000000e+00 -1.1929004413203096e+01 6.0723643593029459e+00 0.0000000000000000e+00 0.0000000000000000e+00 0.0000000000000000e+00 0.0000000000000000e+00  -1.4105854401019398e+01 -1.0354986889756317e+01 0.0000000000000000e+00 -1.0354986889756317e+01 4.2735357049299651e+01 0.0000000000000000e+00 0.0000000000000000e+00 0.0000000000000000e+00 0.0000000000000000e+00  -3.8309292584521160e+01 4.5213383293560888e+01 0.0000000000000000e+00 4.5213383293560888e+01 5.8726916986309156e+01 0.0000000000000000e+00 0.0000000000000000e+00 0.0000000000000000e+00 0.0000000000000000e+00  -8.6685226191608873e+00 -2.0208420163962330e+01 0.0000000000000000e+00 -2.0208420163962330e+01 1.1979870482665936e+01 0.0000000000000000e+00 0.0000000000000000e+00 0.0000000000000000e+00 0.0000000000000000e+00  -6.1186466547809907e+01 6.8036978878553185e+01 0.0000000000000000e+00 6.8036978878553185e+01 -3.9889792611779527e+01 0.0000000000000000e+00 0.0000000000000000e+00 0.0000000000000000e+00 0.0000000000000000e+00  2.0187363350450235e+02 1.1714013290419240e+02 0.0000000000000000e+00 1.1714013290419240e+02 3.5984858411617026e+01 0.0000000000000000e+00 0.0000000000000000e+00 0.0000000000000000e+00 0.0000000000000000e+00  9.7824846082702077e+00 5.8206170468710184e+01 0.0000000000000000e+00 5.8206170468710184e+01 9.3427299470729164e+00 0.0000000000000000e+00 0.0000000000000000e+00 0.0000000000000000e+00 0.0000000000000000e+00  -3.9539683641096318e-01 3.0815886565524351e+00 0.0000000000000000e+00 3.0815886565524351e+00 -2.3050295559909845e+01 0.0000000000000000e+00 0.0000000000000000e+00 0.0000000000000000e+00 0.0000000000000000e+00  1.9821051635855468e+01 5.8294120353959805e+01 0.0000000000000000e+00 5.8294120353959805e+01 1.8699359282627181e+01 0.0000000000000000e+00 0.0000000000000000e+00 0.0000000000000000e+00 0.0000000000000000e+00  1.9840296765470061e+01 5.7246167934208877e+01 0.0000000000000000e+00 5.7246167934208877e+01 2.9882719147268400e+01 0.0000000000000000e+00 0.0000000000000000e+00 0.0000000000000000e+00 0.0000000000000000e+00  -3.5123636635706532e+01 6.2538928986742315e+00 0.0000000000000000e+00 6.2538928986742315e+00 1.1185033262413382e+01 0.0000000000000000e+00 0.0000000000000000e+00 0.0000000000000000e+00 0.0000000000000000e+00  -2.4848748621832602e+01 -1.1529344328825550e+01 0.0000000000000000e+00 -1.1529344328825550e+01 1.5835032992384042e+00 0.0000000000000000e+00 0.0000000000000000e+00 0.0000000000000000e+00 0.0000000000000000e+00  -1.2545340509191039e+00 -1.2300777425684471e+02 0.0000000000000000e+00 -1.2300777425684471e+02 -4.0296891018070360e+00 0.0000000000000000e+00 0.0000000000000000e+00 0.0000000000000000e+00 0.0000000000000000e+00  2.2889124197591935e+00 -6.2953746870288452e-01 0.0000000000000000e+00 -6.2953746870288452e-01 2.1844966705420976e+00 0.0000000000000000e+00 0.0000000000000000e+00 0.0000000000000000e+00 0.0000000000000000e+00  6.4248974386888724e+00 -9.1257873970047640e+00 0.0000000000000000e+00 -9.1257873970047640e+00 6.5219396275618990e+00 0.0000000000000000e+00 0.0000000000000000e+00 0.0000000000000000e+00 0.0000000000000000e+00  2.5735361332829143e+00 1.3419180101686730e+00 0.0000000000000000e+00 1.3419180101686730e+00 2.8525912535659628e+00 0.0000000000000000e+00 0.0000000000000000e+00 0.0000000000000000e+00 0.0000000000000000e+00  8.5338409705188631e+00 -1.1118620738224880e+01 0.0000000000000000e+00 -1.1118620738224880e+01 8.5701148583566660e+00 0.0000000000000000e+00 0.0000000000000000e+00 0.0000000000000000e+00 0.0000000000000000e+00  -5.5166935793555609e+00 6.1518362476973913e+01 0.0000000000000000e+00 6.1518362476973913e+01 -5.7805664585601590e+00 0.0000000000000000e+00 0.0000000000000000e+00 0.0000000000000000e+00 0.0000000000000000e+00  -9.1609982896587525e+01 -1.4693208360337985e+02 0.0000000000000000e+00 -1.4693208360337985e+02 -4.8618523660107638e+00 0.0000000000000000e+00 0.0000000000000000e+00 0.0000000000000000e+00 0.0000000000000000e+00  -1.3161349352163679e+01 -5.6563832285546347e+01 0.0000000000000000e+00 -5.6563832285546347e+01 -9.3475664502509108e+00 0.0000000000000000e+00 0.0000000000000000e+00 0.0000000000000000e+00 0.0000000000000000e+00  -2.1258096765510719e+00 1.1664161366308594e+01 0.0000000000000000e+00 1.1664161366308594e+01 -2.1810356187593674e+00 0.0000000000000000e+00 0.0000000000000000e+00 0.0000000000000000e+00 0.0000000000000000e+00  -5.1032593360327434e+00 2.7010254599723691e+01 0.0000000000000000e+00 2.7010254599723691e+01 -4.5944785579549663e+00 0.0000000000000000e+00 0.0000000000000000e+00 0.0000000000000000e+00 0.0000000000000000e+00  -1.1027778605463567e+00 5.8162371721018026e+01 0.0000000000000000e+00 5.8162371721018026e+01 9.4722013293117879e-01 0.0000000000000000e+00 0.0000000000000000e+00 0.0000000000000000e+00 0.0000000000000000e+00  -3.6343641819891404e+00 -7.5077774776265942e+00 0.0000000000000000e+00 -7.5077774776265942e+00 -5.3911984259604395e+00 0.0000000000000000e+00 0.0000000000000000e+00 0.0000000000000000e+00 0.0000000000000000e+00  1.5340790059861389e+01 -8.1446142059345075e+00 0.0000000000000000e+00 -8.1446142059345075e+00 1.5282177858288485e+01 0.0000000000000000e+00 0.0000000000000000e+00 0.0000000000000000e+00 0.0000000000000000e+00  -2.7759038164375118e+00 -8.3858002595501144e+00 0.0000000000000000e+00 -8.3858002595501144e+00 -2.7881179653104051e+00 0.0000000000000000e+00 0.0000000000000000e+00 0.0000000000000000e+00 0.0000000000000000e+00  -1.4340292077997265e+01 -6.1743129340447901e+01 0.0000000000000000e+00 -6.1743129340447901e+01 -1.2682539590151611e+01 0.0000000000000000e+00 0.0000000000000000e+00 0.0000000000000000e+00 0.0000000000000000e+00  -1.8532432681384017e-01 -7.9871024124989400e+00 0.0000000000000000e+00 -7.9871024124989400e+00 -1.1286894110309229e-01 0.0000000000000000e+00 0.0000000000000000e+00 0.0000000000000000e+00 0.0000000000000000e+00  8.7289609031978816e+00 1.1210672312753118e+01 0.0000000000000000e+00 1.1210672312753118e+01 8.9784723375898317e+00 0.0000000000000000e+00 0.0000000000000000e+00 0.0000000000000000e+00 0.0000000000000000e+00  5.7078193768434581e+01 -8.8959940269420386e+01 0.0000000000000000e+00 -8.8959940269420386e+01 -4.6909598580231728e+00 0.0000000000000000e+00 0.0000000000000000e+00 0.0000000000000000e+00 0.0000000000000000e+00  1.0697971013402379e+01 -7.7440287507728041e+00 0.0000000000000000e+00 -7.7440287507728041e+00 1.0900662533374479e+01 0.0000000000000000e+00 0.0000000000000000e+00 0.0000000000000000e+00 0.0000000000000000e+00  1.3583217883157806e+01 -4.0623371105589410e+00 0.0000000000000000e+00 -4.0623371105589410e+00 1.3703830641659051e+01 0.0000000000000000e+00 0.0000000000000000e+00 0.0000000000000000e+00 0.0000000000000000e+00  -9.2464863409999143e-01 -7.5104931112671496e+00 0.0000000000000000e+00 -7.5104931112671496e+00 -1.0427271368127093e+00 0.0000000000000000e+00 0.0000000000000000e+00 0.0000000000000000e+00 0.0000000000000000e+00  2.4641325143147892e+00 -1.6875137874546378e+00 0.0000000000000000e+00 -1.6875137874546378e+00 2.3108123628122517e+00 0.0000000000000000e+00 0.0000000000000000e+00 0.0000000000000000e+00 0.0000000000000000e+00  -5.4630892537011198e+00 9.9533936111417596e+00 0.0000000000000000e+00 9.9533936111417596e+00 -5.7229992476889437e+00 0.0000000000000000e+00 0.0000000000000000e+00 0.0000000000000000e+00 0.0000000000000000e+00  -3.3513782176551038e-01 2.1661255236211687e+00 0.0000000000000000e+00 2.1661255236211687e+00 -6.5678970686176941e-01 0.0000000000000000e+00 0.0000000000000000e+00 0.0000000000000000e+00 0.0000000000000000e+00  1.6252500479694923e+01 -9.1587152516559467e+00 0.0000000000000000e+00 -9.1587152516559467e+00 1.6397862423678102e+01 0.0000000000000000e+00 0.0000000000000000e+00 0.0000000000000000e+00 0.0000000000000000e+00  -7.1384177572955378e+00 8.2780551588111120e+00 0.0000000000000000e+00 8.2780551588111120e+00 -8.2234441092120480e+00 0.0000000000000000e+00 0.0000000000000000e+00 0.0000000000000000e+00 0.0000000000000000e+00  6.7301120446967939e+00 -9.2080825964901756e+00 0.0000000000000000e+00 -9.2080825964901756e+00 8.1304666246356874e+00 0.0000000000000000e+00 0.0000000000000000e+00 0.0000000000000000e+00 0.0000000000000000e+00  7.9200923064442224e+00 -3.8162413303713145e+00 0.0000000000000000e+00 -3.8162413303713145e+00 7.8801389576185379e+00 0.0000000000000000e+00 0.0000000000000000e+00 0.0000000000000000e+00 0.0000000000000000e+00  4.4554402031480889e+00 -6.9915982949500757e+00 0.0000000000000000e+00 -6.9915982949500757e+00 4.4828114805547052e+00 0.0000000000000000e+00 0.0000000000000000e+00 0.0000000000000000e+00 0.0000000000000000e+00  4.6807907159158280e+00 -4.9277376655693539e+00 0.0000000000000000e+00 -4.9277376655693539e+00 4.6179481750348685e+00 0.0000000000000000e+00 0.0000000000000000e+00 0.0000000000000000e+00 0.0000000000000000e+00  -2.9744596334741287e+00 -2.8027949841227797e+00 0.0000000000000000e+00 -2.8027949841227802e+00 -4.6069190508315376e+00 0.0000000000000000e+00 0.0000000000000000e+0