<?xml version="1.0"?>
<VTKFile type="UnstructuredGrid"  version="0.1"  >
<UnstructuredGrid>
<Piece  NumberOfPoints="5089" NumberOfCells="9865">
<Points>
<DataArray  type="Float64"  NumberOfComponents="3"  format="ascii">0 1.5 0  0 0 0  0.1029058182573948 0 0  0.1029058182573948 0.02393156642875577 0  0.1251489251828899 0.06631226582407952 0  0.1645395112957465 0.09350162426854149 0  0.2120536680255323 0.0992708874098054 0  0.2568064746731156 0.08229838658936564 0  0.288545602565321 0.04647231720437685 0  0.3 0 0  0.51 0 0  0.5220577136594005 0.04499999999999999 0  0.555 0.07794228634059948 0  0.6 0.09 0  0.645 0.07794228634059946 0  0.6779422863405995 0.04499999999999999 0  0.6899999999999999 0 0  0.8924037639192813 0 0  0.8924037639192813 0.02287028598995353 0  0.9110081306187559 0.06465637775217206 0  0.9450000000000001 0.09526279441628825 0  0.9885018690405581 0.1093974084905101 0  1.033991869381244 0.1046162167924669 0  1.073604366699474 0.08174593080251337 0  1.100490000340686 0.04474103073833802 0  1.11 0 0  1.502905818257395 0 0  1.502905818257395 0.02393156642875577 0  1.52514892518289 0.06631226582407952 0  1.564539511295747 0.09350162426854149 0  1.612053668025532 0.0992708874098054 0  1.656806474673116 0.08229838658936564 0  1.688545602565321 0.04647231720437685 0  1.7 0 0  1.82324056211084 0 0  1.82324056211084 0.02253860454731437 0  1.847611141284377 0.06045996594834066 0  1.888614812938137 0.07918571535047463 0  1.933233201040151 0.07277055962836147 0  1.967300282626494 0.0432512653964478 0  1.98 0 0  2.202905818257395 0 0  2.202905818257395 0.02393156642875577 0  2.22514892518289 0.06631226582407952 0  2.264539511295746 0.09350162426854149 0  2.312053668025532 0.0992708874098054 0  2.356806474673115 0.08229838658936564 0  2.388545602565321 0.04647231720437685 0  2.4 0 0  2.51 0 0  2.522057713659401 0.04499999999999999 0  2.555 0.07794228634059948 0  2.6 0.09 0  2.645 0.07794228634059946 0  2.677942286340599 0.04499999999999999 0  2.69 0 0  3 0 0  3 1.5 0  0 0.75 0  1.5 1.5 0  0 0.375 0  0 0.1875 0  0.75 1.5 0  2.25 1.5 0  3 0.75 0  1.803364316093307 0.8194216192460635 0  0.7085714285714286 0.7914285714285714 0  2.396697907928333 0.698796196655595 0  1.26039230397729 0.6323879781298929 0  1.125 1.5 0  3 1.125 0  0.375 1.5 0  1.418284719659703 1.05567510076647 0  2.625 1.5 0  0 1.125 0  2.4375 1.120298797465005 0  0.4140309460188812 0.4815551607069073 0  0.9375 1.133540466589862 0  1.875 1.5 0  0.4143011358073044 1.085698864192695 0  2.042557228405723 0.4764057674039468 0  3 0.375 0  1.615235786026768 0.4839120951620492 0  0.9172436665953028 0.4786128535408891 0  2.136144598898015 0.9367443054342734 0  2.712089662802327 0.5625 0  1.752709466448716 1.168812671476193 0  2.696461986964791 0.9012929362807449 0  1.307422665144653 0.3094324321200764 0  2.0625 1.24476578117044 0  2.446405755792607 0.3860402512509704 0  0.3158723471199726 0.7836709721106835 0  1.018921994797561 0.831404696897531 0  1.521099871135537 0.7571953762650785 0  2.718190509848388 1.189592528269884 0  0.665307193508031 1.225469494285917 0  1.199897701782483 1.230481185797768 0  0.2233959957266646 1.276604004273335 0  0.6649397520368477 0.3607836886074089 0  0 0.5625 0  2.685543358160364 0.3192521589045413 0  1.775621962986754 0.2975552026784072 0  2.025654700292002 0.7195245521041802 0  0.1961827192748887 0.9897295638426992 0  1.25729921569077 0.8746334216075233 0  1.534142212444284 1.264044413891354 0  1.624439414641745 0.9597398592303362 0  2.117668421489377 0.2641528949307972 0  1.945094170902585 1.053880768096555 0  3 0.1875 0  0.6251639682912251 1.002291403912492 0  0.719601375969486 0.5727782913443102 0  0.2313942916225519 0.3335511938861402 0  0.4687668770508729 0.274248243200137 0  0.5143238740412669 0.6811446824633056 0  1.829350286632844 0.5059917594077202 0  1.082379929992235 0.3249418149194327 0  2.540679850598416 1.305492850437689 0  2.282283153018704 1.279796495628565 0  2.355666841619378 0.9154942188580675 0  0.2114722061938988 0.5448236655965607 0  3 1.3125 0  2.8125 1.5 0  2.263750685400308 0.5173381079832993 0  0.4343085727049624 1.296611441170993 0  1.6875 1.5 0  1.016037518489582 1.324553740130353 0  0.846292314151325 0.9469220663180872 0  1.122827752751251 1.035495517001457 0  1.3125 1.5 0  1.306452909128697 0 0  0.8906638629565067 0.6773217378320744 0  1.517175933126145 0.2981487507037606 0  0.7996957920902151 0.2224603600775558 0  1.446370464174038 0.5785990786868803 0  1.689965192988266 0.6625083927402473 0  0.4864273298880485 0.870473805626289 0  3 0.9375 0  2.831315819563651 1.036097903808422 0  1.106384347284952 0.5163011422226527 0  0.5625 1.5 0  0.9375 1.5 0  0.1875 1.5 0  2.0625 1.5 0  3 0.5625 0  0 0.9375 0  0 1.3125 0  2.4375 1.5 0  2.196044825237544 1.113880351688974 0  2.210431846521007 0.695834380790271 0  0.8262236946704767 1.326155809103077 0  2.523003751809735 0.8349453583788917 0  1.882533682486712 1.30904671408086 0  2.845 0 0  2.813607095438526 0.1837681344374856 0  2.298597604800397 0.280431891689246 0  1.972062138207083 0.8834951655964545 0  1.943392101370151 0.2475417334111557 0  2.828663592588797 0.4267055109367558 0  2.803791026183859 0.7364868569598708 0  2.523250359922468 0.5585816735541729 0  2.602935827188279 1.053310414780935 0  1.692458045540587 1.328962813001376 0  1.232271555781778 0.154950218767993 0  1.36985844680238 1.21899526865025 0  1.785321775315372 1.004919979330962 0  2.534633602602767 0.2439507161942105 0  0.7651985499724481 1.092302611968735 0  2.637828969450683 0.71279922663893 0  1.100469689258933 0.6843495375675052 0  1.315800235513153 0.4755545830105288 0  1.405546076805209 0.1782543944119986 0  2.826282129872177 1.326282129872177 0  0.575884497984488 0.4967904868667201 0  0.1516233666565383 0.826056857120972 0  0.3483704262380678 0.6272257636119053 0  1.568331672486121 1.108640197801574 0  1.475101554186818 0.9082985267599337 0  1.868470483419324 0.6670273102604994 0  0.3467545185571825 0.9433646607171683 0  2.15625 1.373787484318285 0  1.41742615593433 1.367603819494743 0  2.854904919456998 0.8828609574219635 0  0.9476741986655126 0.255395459587152 0  1.267450600339273 1.091056105706913 0  0.114311143675241 0.65625 0  0.65625 1.37859278398136 0  2.170651243108527 0.4023187025489676 0  1.21875 1.380886352874642 0  0.3798992233573569 0.1593768045411093 0  0.9831420651531181 0.9956358347774316 0  1.456186685150796 0.4319140716985383 0  2.586721317152155 0.4269308613840649 0  2.863979293145301 1.178604739864835 0  1.658646098314701 0.8045749301224775 0  1.383553643956373 0.7098158224076794 0  0.154006438477797 1.138458423126247 0  2.856044831401163 0.5977865618779903 0  0.553876003596687 1.130313370813194 0  2.680231675041409 1.360526450748891 0  2.486056782242186 0.9722817331473952 0  1.891212003911469 0.3789027676568836 0  0.8138227412155181 0.37102502168449 0  1.064674644221452 1.192903489156071 0  0.6045358160041144 0.2320910326486189 0  1.194008126159845 0.4081242368041457 0  2.138311355076408 0.5770795769918613 0  0.134142636330111 0.2313017261983794 0  0.8460209454012837 0.8084258449188535 0  0.1293517554287885 0.4305045409359897 0  0.3205820557512212 1.373790064297892 0  0.2928933613730453 1.155196229839076 0  2.404969940572298 1.358123451328196 0  0.9933877375830629 0.5899302104012978 0  2.090287791367255 0.1211621925433303 0  2.904889173308855 0.28125 0  0.1246766077328953 1.375323392267105 0  2.302041695038792 0.7931069109810627 0  2.389228836127323 0.5648368411465005 0  1.886839219693261 1.174850198523801 0  1.96875 1.5 0  2.005259577028834 1.368575570359887 0  2.58746882374347 1.183267841227943 0  1.646515580921743 0.3486369169127919 0  1.980147904783248 0.5942137934419368 0  2.07740167257538 1.055304717195479 0  1.57300338334685 0.6065157750282059 0  1.59375 1.5 0  1.679678032322464 0.2100937046526968 0  2.252673654577562 0.9960348417811178 0  2.17832845930892 0.8178435559778986 0  1.78125 1.5 0  2.021596890434516 0.349571947542988 0  1.79926971381977 0.1752587163176004 0  0.503878860142697 0.3943984894172995 0  1.146622573165596 0.8060813049917908 0  3 1.40625 0  2.649807995179342 0.2020005420916801 0  0.3438742656237004 0.2790576170649142 0  1.546875 1.386334759531577 0  3 0.09375 0  1.320989371181643 0.9800954309611291 0  1.270074893254929 0.7536540780084714 0  2.70770359261854 0.4387759707667409 0  0.5606072232931772 1.296106034499297 0  0.7858104720553775 1.211812834033452 0  2.317237622700128 1.09958886094401 0  2.518665098961854 0.68166123334458 0  1.747777558052355 0.4158756118164814 0  1.683029275145126 1.069756268641544 0  0.46875 1.5 0  2.407758410849746 0.2048845882413086 0  2.396684507181482 1.235853070423643 0  1.919569286509587 0.7755948020085885 0  2.290752654053557 0.4002939182457882 0  0.2367853577638227 0.6856443876677092 0  1.644821718344275 1.219632237269969 0  0 1.03125 0  0.5821665354391095 0.7878606619613046 0  0.6422016866915001 0.674771619551397 0  0.2917070890414653 0.4458139506278615 0  0.7912018819596407 0 0  0.1045102716700244 1.249819735557644 0  1.151091219660612 0.9224858968529193 0  2.719174284445647 1.071883664029489 0  0.7216906855953001 0.918545393630683 0  0.2528020696803429 0.8787006417214202 0  1.726437981314609 0.9055659975386789 0  1.466273966174817 1.158744006060248 0  0.500278661176367 0.9948136517426003 0  1.114706325735654 0.2023659607018325 0  1.193213601931895 0.2926984867334158 0  0.9725372994821596 0.3724679154862157 0  2.214714190066689 0.1991474088029779 0  2.411776451427861 0.8179674328277735 0  1.997105232295531 1.153439169094244 0  0.497834479014996 1.390464488336983 0  0.4532232073331143 0.5868543641678674 0  0.4094710929462204 0.7215160819073434 0  0.2730945637736263 0.1927345247561336 0  2.091452909128697 0 0  1.88727127931541 0.9574017932976476 0  0.7331675361580886 0.4562359341911597 0  0.808798696301996 0.1107204599928528 0  2.794056136375906 0.2935548935723623 0  2.172174128810919 1.263645408055929 0  2.266351953173893 1.389929090293708 0  0.9205129738298803 1.252177379624563 0  2.58760749
[...]
<PointData  Tensors="f_720"> 
<DataArray  type="Float64"  Name="f_720"  NumberOfComponents="9" format="ascii">1.2252306803772857e+01 -4.2583279557954050e+00 0.0000000000000000e+00 -4.2583279557954050e+00 -2.5876384747783096e+01 0.0000000000000000e+00 0.0000000000000000e+00 0.0000000000000000e+00 0.0000000000000000e+00  2.4504716373612478e+01 -2.4181337486868082e+00 0.0000000000000000e+00 -2.4181337486868082e+00 2.9716937711165134e+01 0.0000000000000000e+00 0.0000000000000000e+00 0.0000000000000000e+00 0.0000000000000000e+00  3.5027846570548313e+01 -4.1655021125533542e+00 0.0000000000000000e+00 -4.1655021125533542e+00 2.5625401854972147e+01 0.0000000000000000e+00 0.0000000000000000e+00 0.0000000000000000e+00 0.0000000000000000e+00  6.5304968063029747e+01 2.4983836363526336e+01 0.0000000000000000e+00 2.4983836363526336e+01 -1.0415895100729433e+01 0.0000000000000000e+00 0.0000000000000000e+00 0.0000000000000000e+00 0.0000000000000000e+00  1.0721469625809667e+02 5.7086645009263197e+00 0.0000000000000000e+00 5.7086645009263197e+00 -5.8199986777698918e+01 0.0000000000000000e+00 0.0000000000000000e+00 0.0000000000000000e+00 0.0000000000000000e+00  5.4843512407267241e+01 1.1027829864721230e+01 0.0000000000000000e+00 1.1027829864721230e+01 -6.8953604766130736e+00 0.0000000000000000e+00 0.0000000000000000e+00 0.0000000000000000e+00 0.0000000000000000e+00  4.0568810255272965e+01 8.1402857034783608e+01 0.0000000000000000e+00 8.1402857034783608e+01 6.4853221714518829e+00 0.0000000000000000e+00 0.0000000000000000e+00 0.0000000000000000e+00 0.0000000000000000e+00  3.3311728943105742e+01 2.5181357388412529e+01 0.0000000000000000e+00 2.5181357388412529e+01 2.3791862022219245e+01 0.0000000000000000e+00 0.0000000000000000e+00 0.0000000000000000e+00 0.0000000000000000e+00  -1.5737748936900156e+01 3.1631237176148442e+01 0.0000000000000000e+00 3.1631237176148442e+01 6.8832632367864022e+01 0.0000000000000000e+00 0.0000000000000000e+00 0.0000000000000000e+00 0.0000000000000000e+00  2.9619711048953658e+01 1.6968685709813409e+00 0.0000000000000000e+00 1.6968685709813409e+00 3.4274571757181384e+01 0.0000000000000000e+00 0.0000000000000000e+00 0.0000000000000000e+00 0.0000000000000000e+00  1.2040787683698239e+01 -8.3208425973954405e+00 0.0000000000000000e+00 -8.3208425973954405e+00 4.8577009543713736e+01 0.0000000000000000e+00 0.0000000000000000e+00 0.0000000000000000e+00 0.0000000000000000e+00  -1.9176944327652549e+01 -6.2641350066964110e+00 0.0000000000000000e+00 -6.2641350066964110e+00 6.8169147875027775e+01 0.0000000000000000e+00 0.0000000000000000e+00 0.0000000000000000e+00 0.0000000000000000e+00  -5.4062552809440852e+01 2.4006186053105196e+01 0.0000000000000000e+00 2.4006186053105196e+01 8.5815428551800139e+01 0.0000000000000000e+00 0.0000000000000000e+00 0.0000000000000000e+00 0.0000000000000000e+00  -2.3433152405362176e+01 4.5825626962863151e+00 0.0000000000000000e+00 4.5825626962863151e+00 7.0836935696610496e+01 0.0000000000000000e+00 0.0000000000000000e+00 0.0000000000000000e+00 0.0000000000000000e+00  -4.5136450618533260e+01 -1.6568313954556988e+01 0.0000000000000000e+00 -1.6568313954556988e+01 7.8557129512469501e+01 0.0000000000000000e+00 0.0000000000000000e+00 0.0000000000000000e+00 0.0000000000000000e+00  -4.8603145441949449e+00 4.3725967036415492e+00 0.0000000000000000e+00 4.3725967036415492e+00 5.6631059002869804e+01 0.0000000000000000e+00 0.0000000000000000e+00 0.0000000000000000e+00 0.0000000000000000e+00  9.8741651003260440e+00 5.1309221248777002e+00 0.0000000000000000e+00 5.1309221248777002e+00 4.2852842005260733e+01 0.0000000000000000e+00 0.0000000000000000e+00 0.0000000000000000e+00 0.0000000000000000e+00  1.6848891693486468e+01 5.6848406454746030e+00 0.0000000000000000e+00 5.6848406454746030e+00 2.4399009701631524e+01 0.0000000000000000e+00 0.0000000000000000e+00 0.0000000000000000e+00 0.0000000000000000e+00  -1.9690403149550658e+01 -3.3270994492662879e+01 0.0000000000000000e+00 -3.3270994492662879e+01 6.8600495954481389e+01 0.0000000000000000e+00 0.0000000000000000e+00 0.0000000000000000e+00 0.0000000000000000e+00  -3.0721143718275503e+01 -3.9013438477495221e+01 0.0000000000000000e+00 -3.9013438477495221e+01 7.2463591635378137e+01 0.0000000000000000e+00 0.0000000000000000e+00 0.0000000000000000e+00 0.0000000000000000e+00  1.7855698858214076e+01 -2.5856317223620490e+01 0.0000000000000000e+00 -2.5856317223620490e+01 2.6082186721320554e+01 0.0000000000000000e+00 0.0000000000000000e+00 0.0000000000000000e+00 0.0000000000000000e+00  3.2276555032273791e+01 -5.1679125003024737e+01 0.0000000000000000e+00 -5.1679125003024737e+01 1.2996512124040118e+01 0.0000000000000000e+00 0.0000000000000000e+00 0.0000000000000000e+00 0.0000000000000000e+00  6.6762040748732346e+01 -1.0202812308081249e+01 0.0000000000000000e+00 -1.0202812308081249e+01 -1.6485051242569185e+01 0.0000000000000000e+00 0.0000000000000000e+00 0.0000000000000000e+00 0.0000000000000000e+00  1.0188843720952285e+02 4.5738636325404487e+00 0.0000000000000000e+00 4.5738636325404487e+00 -6.0917302262829203e+01 0.0000000000000000e+00 0.0000000000000000e+00 0.0000000000000000e+00 0.0000000000000000e+00  8.7108313347567886e+01 -3.5343727518789045e+01 0.0000000000000000e+00 -3.5343727518789045e+01 -4.4133710192012188e+01 0.0000000000000000e+00 0.0000000000000000e+00 0.0000000000000000e+00 0.0000000000000000e+00  4.2551687999210706e+01 -1.2506474825762030e+01 0.0000000000000000e+00 -1.2506474825762030e+01 -2.3229248562451903e+00 0.0000000000000000e+00 0.0000000000000000e+00 0.0000000000000000e+00 0.0000000000000000e+00  1.6580425326427523e+01 5.9656765856441130e+00 0.0000000000000000e+00 5.9656765856441130e+00 2.2100869665341566e+01 0.0000000000000000e+00 0.0000000000000000e+00 0.0000000000000000e+00 0.0000000000000000e+00  -1.5996321281848367e+01 -2.5432435056958568e+01 0.0000000000000000e+00 -2.5432435056958568e+01 5.6962575573078631e+01 0.0000000000000000e+00 0.0000000000000000e+00 0.0000000000000000e+00 0.0000000000000000e+00  -1.3151798323535630e+01 -2.2817066227110217e+01 0.0000000000000000e+00 -2.2817066227110217e+01 6.0040641898461260e+01 0.0000000000000000e+00 0.0000000000000000e+00 0.0000000000000000e+00 0.0000000000000000e+00  3.9848733057366346e+01 -5.0700271730253313e+01 0.0000000000000000e+00 -5.0700271730253313e+01 8.3782077907632431e+00 0.0000000000000000e+00 0.0000000000000000e+00 0.0000000000000000e+00 0.0000000000000000e+00  2.8437504640028944e+01 -3.1674630884418644e+01 0.0000000000000000e+00 -3.1674630884418644e+01 -5.2479901829453670e+00 0.0000000000000000e+00 0.0000000000000000e+00 0.0000000000000000e+00 0.0000000000000000e+00  7.2139984110014296e+01 7.0713416607545225e+00 0.0000000000000000e+00 7.0713416607545225e+00 -3.7473048943100657e+01 0.0000000000000000e+00 0.0000000000000000e+00 0.0000000000000000e+00 0.0000000000000000e+00  9.4415056714760340e+01 -5.0759955932851845e+01 0.0000000000000000e+00 -5.0759955932851845e+01 -5.1600850565026029e+01 0.0000000000000000e+00 0.0000000000000000e+00 0.0000000000000000e+00 0.0000000000000000e+00  2.1052044296633344e+01 -8.9716193616013518e-01 0.0000000000000000e+00 -8.9716193616013518e-01 2.2438294294319466e+01 0.0000000000000000e+00 0.0000000000000000e+00 0.0000000000000000e+00 0.0000000000000000e+00  1.8815579331849051e+01 3.6254794554937049e+00 0.0000000000000000e+00 3.6254794554937049e+00 2.3329824793939245e+01 0.0000000000000000e+00 0.0000000000000000e+00 0.0000000000000000e+00 0.0000000000000000e+00  1.2819856613072737e+01 -1.2220585109394822e+01 0.0000000000000000e+00 -1.2220585109394822e+01 3.2802051506429635e+01 0.0000000000000000e+00 0.0000000000000000e+00 0.0000000000000000e+00 0.0000000000000000e+00  2.7820474332907448e+01 -2.1889627010693360e+01 0.0000000000000000e+00 -2.1889627010693360e+01 1.4040581479024151e+01 0.0000000000000000e+00 0.0000000000000000e+00 0.0000000000000000e+00 0.0000000000000000e+00  2.6768923081306909e+01 -4.8191169042569712e+01 0.0000000000000000e+00 -4.8191169042569712e+01 3.2041372206109724e+00 0.0000000000000000e+00 0.0000000000000000e+00 0.0000000000000000e+00 0.0000000000000000e+00  4.3364803227374694e+01 -2.3620524109642218e+01 0.0000000000000000e+00 -2.3620524109642218e+01 -2.6405775889867433e+00 0.0000000000000000e+00 0.0000000000000000e+00 0.0000000000000000e+00 0.0000000000000000e+00  7.3019916830314585e+01 -1.6563267378908503e+01 0.0000000000000000e+00 -1.6563267378908503e+01 -4.0266731957788998e+01 0.0000000000000000e+00 0.0000000000000000e+00 0.0000000000000000e+00 0.0000000000000000e+00  5.0707156097358265e+01 -1.2727728112251993e+00 0.0000000000000000e+00 -1.2727728112251993e+00 -1.5681750963220106e+01 0.0000000000000000e+00 0.0000000000000000e+00 0.0000000000000000e+00 0.0000000000000000e+00  2.5845985248411107e+01 -4.9861103198714378e+00 0.0000000000000000e+00 -4.9861103198714378e+00 1.7610443160094505e+01 0.0000000000000000e+00 0.0000000000000000e+00 0.0000000000000000e+00 0.0000000000000000e+00  6.2698715252421202e+01 2.5421747433272351e+01 0.0000000000000000e+00 2.5421747433272351e+01 -2.2088397041064034e+01 0.0000000000000000e+00 0.0000000000000000e+00 0.0000000000000000e+00 0.0000000000000000e+00  8.5160852371245156e+01 1.2501071547891643e+01 0.0000000000000000e+00 1.2501071547891643e+01 -5.4290837474111264e+01 0.0000000000000000e+00 0.0000000000000000e+00 0.0000000000000000e+00 0.0000000000000000e+00  5.7827471849311920e+01 -1.0119083742949430e+01 0.0000000000000000e+00 -1.0119083742949430e+01 -2.6719691175609267e+01 0.0000000000000000e+00 0.0000000000000000e+00 0.0000000000000000e+00 0.0000000000000000e+00  2.6023850568764963e+01 4.1414759030991512e+01 0.0000000000000000e+00 4.1414759030991512e+01 4.0534861221249860e+00 0.0000000000000000e+00 0.0000000000000000e+00 0.0000000000000000e+00 0.0000000000000000e+00  -7.5064601639947197e+00 1.1528843439690524e+01 0.0000000000000000e+00 1.1528843439690524e+01 4.4577959237047303e+01 0.0000000000000000e+00 0.0000000000000000e+00 0.0000000000000000e+00 0.0000000000000000e+00  -3.0015044658257295e+01 4.1174788628925135e+01 0.0000000000000000e+00 4.1174788628925135e+01 5.6070511036390549e+01 0.0000000000000000e+00 0.0000000000000000e+00 0.0000000000000000e+00 0.0000000000000000e+00  4.2701691762858296e+00 -1.0839801739078961e+01 0.0000000000000000e+00 -1.0839801739078961e+01 3.1447005231145909e+01 0.0000000000000000e+00 0.0000000000000000e+00 0.0000000000000000e+00 0.0000000000000000e+00  5.1759095213002979e+01 2.5987353541686216e+00 0.0000000000000000e+00 2.5987353541686216e+00 -2.3768306286730418e+01 0.0000000000000000e+00 0.0000000000000000e+00 0.0000000000000000e+00 0.0000000000000000e+00  8.6402591133243163e+01 2.6700762036102670e+01 0.0000000000000000e+00 2.6700762036102670e+01 -6.6699649212229005e+01 0.0000000000000000e+00 0.0000000000000000e+00 0.0000000000000000e+00 0.0000000000000000e+00  8.1851813329905383e+01 -3.2354361165491987e+01 0.0000000000000000e+00 -3.2354361165491987e+01 -7.1354786111958106e+01 0.0000000000000000e+00 0.0000000000000000e+00 0.0000000000000000e+00 0.0000000000000000e+00  1.4414954902840737e+01 -1.4826164432975382e+01 0.0000000000000000e+00 -1.4826164432975382e+01 5.3929071075354820e+00 0.0000000000000000e+00 0.0000000000000000e+00 0.0000000000000000e+00 0.0000000000000000e+00  -2.6655498666632180e+01 -1.4362765451680179e+01 0.0000000000000000e+00 -1.4362765451680179e+01 5.5721833906354384e+01 0.0000000000000000e+00 0.0000000000000000e+00 0.0000000000000000e+00 0.0000000000000000e+00  -6.3873624850124102e+01 6.7830929573094977e+01 0.0000000000000000e+00 6.7830929573094977e+01 8.4642896667917995e+01 0.0000000000000000e+00 0.0000000000000000e+00 0.0000000000000000e+00 0.0000000000000000e+00  -1.0078034073552651e+01 -2.0352828670726527e+01 0.0000000000000000e+00 -2.0352828670726527e+01 1.2803664412535742e+01 0.0000000000000000e+00 0.0000000000000000e+00 0.0000000000000000e+00 0.0000000000000000e+00  -7.4259677549159377e+01 8.2583517098587990e+01 0.0000000000000000e+00 8.2583517098587990e+01 -4.6365062476493627e+01 0.0000000000000000e+00 0.0000000000000000e+00 0.0000000000000000e+00 0.0000000000000000e+00  2.9110572008167946e+02 1.6937611699372746e+02 0.0000000000000000e+00 1.6937611699372746e+02 5.4391909002499347e+01 0.0000000000000000e+00 0.0000000000000000e+00 0.0000000000000000e+00 0.0000000000000000e+00  9.6396440313730629e+00 7.9886760124605189e+01 0.0000000000000000e+00 7.9886760124605189e+01 9.2662720719642433e+00 0.0000000000000000e+00 0.0000000000000000e+00 0.0000000000000000e+00 0.0000000000000000e+00  2.1786505418130933e+00 4.8015365226492355e+00 0.0000000000000000e+00 4.8015365226492355e+00 -2.3784955837495787e+01 0.0000000000000000e+00 0.0000000000000000e+00 0.0000000000000000e+00 0.0000000000000000e+00  1.9926764836276771e+01 8.1331511841318417e+01 0.0000000000000000e+00 8.1331511841318417e+01 1.7906206299956914e+01 0.0000000000000000e+00 0.0000000000000000e+00 0.0000000000000000e+00 0.0000000000000000e+00  1.9102136243137945e+01 8.0234204626371778e+01 0.0000000000000000e+00 8.0234204626371778e+01 3.0004387930115811e+01 0.0000000000000000e+00 0.0000000000000000e+00 0.0000000000000000e+00 0.0000000000000000e+00  -3.8840366819110770e+01 8.6541656782065193e+00 0.0000000000000000e+00 8.6541656782065193e+00 1.7047684392905509e+01 0.0000000000000000e+00 0.0000000000000000e+00 0.0000000000000000e+00 0.0000000000000000e+00  -2.7244247912615265e+01 -1.5193000563741634e+01 0.0000000000000000e+00 -1.5193000563741634e+01 6.3449326020404238e+00 0.0000000000000000e+00 0.0000000000000000e+00 0.0000000000000000e+00 0.0000000000000000e+00  -3.3632892464408419e+00 -1.6692807910991183e+02 0.0000000000000000e+00 -1.6692807910991183e+02 -4.5907015005194687e+00 0.0000000000000000e+00 0.0000000000000000e+00 0.0000000000000000e+00 0.0000000000000000e+00  2.1409827941385835e+00 -9.4903575171809607e-01 0.0000000000000000e+00 -9.4903575171809607e-01 2.0038411859331382e+00 0.0000000000000000e+00 0.0000000000000000e+00 0.0000000000000000e+00 0.0000000000000000e+00  6.2615519179431827e+00 -1.4036339009263004e+01 0.0000000000000000e+00 -1.4036339009263004e+01 6.3515175507626545e+00 0.0000000000000000e+00 0.0000000000000000e+00 0.0000000000000000e+00 0.0000000000000000e+00  2.4109475933585585e+00 2.1369326817979863e+00 0.0000000000000000e+00 2.1369326817979863e+00 2.7266740661819417e+00 0.0000000000000000e+00 0.0000000000000000e+00 0.0000000000000000e+00 0.0000000000000000e+00  8.3598300205922342e+00 -1.7092077463587319e+01 0.0000000000000000e+00 -1.7092077463587319e+01 8.4056595231210647e+00 0.0000000000000000e+00 0.0000000000000000e+00 0.0000000000000000e+00 0.0000000000000000e+00  -6.1747135831695035e+00 8.5135809104383029e+01 0.0000000000000000e+00 8.5135809104383029e+01 -5.2101115999312979e+00 0.0000000000000000e+00 0.0000000000000000e+00 0.0000000000000000e+00 0.0000000000000000e+00  -1.5044462881710717e+02 -2.2660530091897223e+02 0.0000000000000000e+00 -2.2660530091897223e+02 -6.5072637372393940e+00 0.0000000000000000e+00 0.0000000000000000e+00 0.0000000000000000e+00 0.0000000000000000e+00  -1.4431584382008957e+01 -7.4939678302357663e+01 0.0000000000000000e+00 -7.4939678302357663e+01 -8.1886178955351383e+00 0.0000000000000000e+00 0.0000000000000000e+00 0.0000000000000000e+00 0.0000000000000000e+00  -2.3274387166492918e+00 1.7925077737031152e+01 0.0000000000000000e+00 1.7925077737031152e+01 -2.2811868893202703e+00 0.0000000000000000e+00 0.0000000000000000e+00 0.0000000000000000e+00 0.0000000000000000e+00  -5.5704840324120850e+00 3.8599758547210392e+01 0.0000000000000000e+00 3.8599758547210392e+01 -3.7968224708033169e+00 0.0000000000000000e+00 0.0000000000000000e+00 0.0000000000000000e+00 0.0000000000000000e+00  -1.6518400707801677e+00 7.9939761506251898e+01 0.0000000000000000e+00 7.9939761506251898e+01 4.3941032169662375e-01 0.0000000000000000e+00 0.0000000000000000e+00 0.0000000000000000e+00 0.0000000000000000e+00  -3.5931991638896812e+00 -1.1259626245881904e+01 0.0000000000000000e+00 -1.1259626245881904e+01 -5.8598414774147196e+00 0.0000000000000000e+00 0.0000000000000000e+00 0.0000000000000000e+00 0.0000000000000000e+00  1.5184717054992323e+01 -1.2589313380941707e+01 0.0000000000000000e+00 -1.2589313380941707e+01 1.5051611643587394e+01 0.0000000000000000e+00 0.0000000000000000e+00 0.0000000000000000e+00 0.0000000000000000e+00  -2.9162089900228128e+00 -1.2941826863863591e+01 0.0000000000000000e+00 -1.2941826863863591e+01 -2.9863464306099288e+00 0.0000000000000000e+00 0.0000000000000000e+00 0.0000000000000000e+00 0.0000000000000000e+00  -1.5819486925881547e+01 -8.4920241415319182e+01 0.0000000000000000e+00 -8.4920241415319182e+01 -1.3624776870181895e+01 0.0000000000000000e+00 0.0000000000000000e+00 0.0000000000000000e+00 0.0000000000000000e+00  -3.3869334860648637e-01 -1.2266245067597961e+01 0.0000000000000000e+00 -1.2266245067597961e+01 -2.9954929187189300e-01 0.0000000000000000e+00 0.0000000000000000e+00 0.0000000000000000e+00 0.0000000000000000e+00  8.5067640933125297e+00 1.7198241056929074e+01 0.0000000000000000e+00 1.7198241056929074e+01 8.8761620513370776e+00 0.0000000000000000e+00 0.0000000000000000e+00 0.0000000000000000e+00 0.0000000000000000e+00  8.3263745554602565e+01 -1.1090821428399749e+02 0.0000000000000000e+00 -1.1090821428399749e+02 -5.5609742466269365e+00 0.0000000000000000e+00 0.0000000000000000e+00 0.0000000000000000e+00 0.0000000000000000e+00  1.0478875595609328e+01 -1.1902938117162973e+01 0.0000000000000000e+00 -1.1902938117162973e+01 1.0773870066326248e+01 0.0000000000000000e+00 0.0000000000000000e+00 0.0000000000000000e+00 0.0000000000000000e+00  1.3374850573222609e+01 -6.2066794128345553e+00 0.0000000000000000e+00 -6.2066794128345553e+00 1.3548260939266163e+01 0.0000000000000000e+00 0.0000000000000000e+00 0.0000000000000000e+00 0.0000000000000000e+00  -1.0557461253866913e+00 -1.1474537434450101e+01 0.0000000000000000e+00 -1.1474537434450101e+01 -1.2512173718023911e+00 0.0000000000000000e+00 0.0000000000000000e+00 0.0000000000000000e+00 0.0000000000000000e+00  2.2284255303264215e+00 -3.0328565097542977e+00 0.0000000000000000e+00 -3.0328565097542977e+00 2.6996545406360992e+00 0.0000000000000000e+00 0.0000000000000000e+00 0.0000000000000000e+00 0.0000000000000000e+00  -5.5904798459667422e+00 1.5264184302247829e+01 0.0000000000000000e+00 1.5264184302247829e+01 -5.9776313636968261e+00 0.0000000000000000e+00 0.0000000000000000e+00 0.0000000000000000e+00 0.0000000000000000e+00  -2.9161807307858462e-01 3.5771507654491095e+00 0.0000000000000000e+00 3.5771507654491095e+00 -1.0408818282281598e+00 0.0000000000000000e+00 0.0000000000000000e+00 0.0000000000000000e+00 0.0000000000000000e+00  1.6030801473676206e+01 -1.4123373757602581e+01 0.0000000000000000e+00 -1.4123373757602581e+01 1.6268831151879628e+01 0.0000000000000000e+00 0.0000000000000000e+00 0.0000000000000000e+00 0.0000000000000000e+00  -7.1244117338316109e+00 1.2837227803788089e+01 0.0000000000000000e+00 1.2837227803788089e+01 -8.7130572563858593e+00 0.0000000000000000e+00 0.0000000000000000e+00 0.0000000000000000e+00 0.0000000000000000e+00  6.1041358948584126e+00 -1.4394973215158284e+01 0.0000000000000000e+00 -1.4394973215158286e+01 8.4591394877558237e+00 0.0000000000000000e+00 0.0000000000000000e+00 0.0000000000000000e+00 0.0000000000000000e+00  7.7585583214160856e+00 -5.8489882811984373e+00 0.0000000000000000e+00 -5.8489882811984373e+00 7.6688791819633781e+00 0.0000000000000000e+00 0.0000000000000000e+00 0.0000000000000000e+00 0.0000000000000000e+00  4.2802913774327322e+00 -1.0748524236042186e+01 0.0000000000000000e+00 -1.0748524236042186e+01 4.3079383203534993e+00 0.0000000000000000e+00 0.0000000000000000e+00 0.0000000000000000e+00 0.0000000000000000e+00  4.5164805415179607e+00 -7.5288394752569312e+00 0.0000000000000000e+00 -7.5288394752569312e+00 4.4257787946224934e+00 0.0000000000000000e+00 0.0000000000000000e+00 0.0000000000000000e+00 0.0000000000000000e+00  -2.7299995314032435e+00 -3.4862525600789862e+00 0.0000000000000000e+00 -3.4862525600789862e+00 -5.3953350401910347e+00 0.0000000000000000e+00 0.0000000000000000