<?xml version="1.0"?>
<VTKFile type="UnstructuredGrid"  version="0.1"  >
<UnstructuredGrid>
<Piece  NumberOfPoints="5089" NumberOfCells="9865">
<Points>
<DataArray  type="Float64"  NumberOfComponents="3"  format="ascii">0 1.5 0  0 0 0  0.1029058182573948 0 0  0.1029058182573948 0.02393156642875577 0  0.1251489251828899 0.06631226582407952 0  0.1645395112957465 0.09350162426854149 0  0.2120536680255323 0.0992708874098054 0  0.2568064746731156 0.08229838658936564 0  0.288545602565321 0.04647231720437685 0  0.3 0 0  0.51 0 0  0.5220577136594005 0.04499999999999999 0  0.555 0.07794228634059948 0  0.6 0.09 0  0.645 0.07794228634059946 0  0.6779422863405995 0.04499999999999999 0  0.6899999999999999 0 0  0.8924037639192813 0 0  0.8924037639192813 0.02287028598995353 0  0.9110081306187559 0.06465637775217206 0  0.9450000000000001 0.09526279441628825 0  0.9885018690405581 0.1093974084905101 0  1.033991869381244 0.1046162167924669 0  1.073604366699474 0.08174593080251337 0  1.100490000340686 0.04474103073833802 0  1.11 0 0  1.502905818257395 0 0  1.502905818257395 0.02393156642875577 0  1.52514892518289 0.06631226582407952 0  1.564539511295747 0.09350162426854149 0  1.612053668025532 0.0992708874098054 0  1.656806474673116 0.08229838658936564 0  1.688545602565321 0.04647231720437685 0  1.7 0 0  1.82324056211084 0 0  1.82324056211084 0.02253860454731437 0  1.847611141284377 0.06045996594834066 0  1.888614812938137 0.07918571535047463 0  1.933233201040151 0.07277055962836147 0  1.967300282626494 0.0432512653964478 0  1.98 0 0  2.202905818257395 0 0  2.202905818257395 0.02393156642875577 0  2.22514892518289 0.06631226582407952 0  2.264539511295746 0.09350162426854149 0  2.312053668025532 0.0992708874098054 0  2.356806474673115 0.08229838658936564 0  2.388545602565321 0.04647231720437685 0  2.4 0 0  2.51 0 0  2.522057713659401 0.04499999999999999 0  2.555 0.07794228634059948 0  2.6 0.09 0  2.645 0.07794228634059946 0  2.677942286340599 0.04499999999999999 0  2.69 0 0  3 0 0  3 1.5 0  0 0.75 0  1.5 1.5 0  0 0.375 0  0 0.1875 0  0.75 1.5 0  2.25 1.5 0  3 0.75 0  1.803364316093307 0.8194216192460635 0  0.7085714285714286 0.7914285714285714 0  2.396697907928333 0.698796196655595 0  1.26039230397729 0.6323879781298929 0  1.125 1.5 0  3 1.125 0  0.375 1.5 0  1.418284719659703 1.05567510076647 0  2.625 1.5 0  0 1.125 0  2.4375 1.120298797465005 0  0.4140309460188812 0.4815551607069073 0  0.9375 1.133540466589862 0  1.875 1.5 0  0.4143011358073044 1.085698864192695 0  2.042557228405723 0.4764057674039468 0  3 0.375 0  1.615235786026768 0.4839120951620492 0  0.9172436665953028 0.4786128535408891 0  2.136144598898015 0.9367443054342734 0  2.712089662802327 0.5625 0  1.752709466448716 1.168812671476193 0  2.696461986964791 0.9012929362807449 0  1.307422665144653 0.3094324321200764 0  2.0625 1.24476578117044 0  2.446405755792607 0.3860402512509704 0  0.3158723471199726 0.7836709721106835 0  1.018921994797561 0.831404696897531 0  1.521099871135537 0.7571953762650785 0  2.718190509848388 1.189592528269884 0  0.665307193508031 1.225469494285917 0  1.199897701782483 1.230481185797768 0  0.2233959957266646 1.276604004273335 0  0.6649397520368477 0.3607836886074089 0  0 0.5625 0  2.685543358160364 0.3192521589045413 0  1.775621962986754 0.2975552026784072 0  2.025654700292002 0.7195245521041802 0  0.1961827192748887 0.9897295638426992 0  1.25729921569077 0.8746334216075233 0  1.534142212444284 1.264044413891354 0  1.624439414641745 0.9597398592303362 0  2.117668421489377 0.2641528949307972 0  1.945094170902585 1.053880768096555 0  3 0.1875 0  0.6251639682912251 1.002291403912492 0  0.719601375969486 0.5727782913443102 0  0.2313942916225519 0.3335511938861402 0  0.4687668770508729 0.274248243200137 0  0.5143238740412669 0.6811446824633056 0  1.829350286632844 0.5059917594077202 0  1.082379929992235 0.3249418149194327 0  2.540679850598416 1.305492850437689 0  2.282283153018704 1.279796495628565 0  2.355666841619378 0.9154942188580675 0  0.2114722061938988 0.5448236655965607 0  3 1.3125 0  2.8125 1.5 0  2.263750685400308 0.5173381079832993 0  0.4343085727049624 1.296611441170993 0  1.6875 1.5 0  1.016037518489582 1.324553740130353 0  0.846292314151325 0.9469220663180872 0  1.122827752751251 1.035495517001457 0  1.3125 1.5 0  1.306452909128697 0 0  0.8906638629565067 0.6773217378320744 0  1.517175933126145 0.2981487507037606 0  0.7996957920902151 0.2224603600775558 0  1.446370464174038 0.5785990786868803 0  1.689965192988266 0.6625083927402473 0  0.4864273298880485 0.870473805626289 0  3 0.9375 0  2.831315819563651 1.036097903808422 0  1.106384347284952 0.5163011422226527 0  0.5625 1.5 0  0.9375 1.5 0  0.1875 1.5 0  2.0625 1.5 0  3 0.5625 0  0 0.9375 0  0 1.3125 0  2.4375 1.5 0  2.196044825237544 1.113880351688974 0  2.210431846521007 0.695834380790271 0  0.8262236946704767 1.326155809103077 0  2.523003751809735 0.8349453583788917 0  1.882533682486712 1.30904671408086 0  2.845 0 0  2.813607095438526 0.1837681344374856 0  2.298597604800397 0.280431891689246 0  1.972062138207083 0.8834951655964545 0  1.943392101370151 0.2475417334111557 0  2.828663592588797 0.4267055109367558 0  2.803791026183859 0.7364868569598708 0  2.523250359922468 0.5585816735541729 0  2.602935827188279 1.053310414780935 0  1.692458045540587 1.328962813001376 0  1.232271555781778 0.154950218767993 0  1.36985844680238 1.21899526865025 0  1.785321775315372 1.004919979330962 0  2.534633602602767 0.2439507161942105 0  0.7651985499724481 1.092302611968735 0  2.637828969450683 0.71279922663893 0  1.100469689258933 0.6843495375675052 0  1.315800235513153 0.4755545830105288 0  1.405546076805209 0.1782543944119986 0  2.826282129872177 1.326282129872177 0  0.575884497984488 0.4967904868667201 0  0.1516233666565383 0.826056857120972 0  0.3483704262380678 0.6272257636119053 0  1.568331672486121 1.108640197801574 0  1.475101554186818 0.9082985267599337 0  1.868470483419324 0.6670273102604994 0  0.3467545185571825 0.9433646607171683 0  2.15625 1.373787484318285 0  1.41742615593433 1.367603819494743 0  2.854904919456998 0.8828609574219635 0  0.9476741986655126 0.255395459587152 0  1.267450600339273 1.091056105706913 0  0.114311143675241 0.65625 0  0.65625 1.37859278398136 0  2.170651243108527 0.4023187025489676 0  1.21875 1.380886352874642 0  0.3798992233573569 0.1593768045411093 0  0.9831420651531181 0.9956358347774316 0  1.456186685150796 0.4319140716985383 0  2.586721317152155 0.4269308613840649 0  2.863979293145301 1.178604739864835 0  1.658646098314701 0.8045749301224775 0  1.383553643956373 0.7098158224076794 0  0.154006438477797 1.138458423126247 0  2.856044831401163 0.5977865618779903 0  0.553876003596687 1.130313370813194 0  2.680231675041409 1.360526450748891 0  2.486056782242186 0.9722817331473952 0  1.891212003911469 0.3789027676568836 0  0.8138227412155181 0.37102502168449 0  1.064674644221452 1.192903489156071 0  0.6045358160041144 0.2320910326486189 0  1.194008126159845 0.4081242368041457 0  2.138311355076408 0.5770795769918613 0  0.134142636330111 0.2313017261983794 0  0.8460209454012837 0.8084258449188535 0  0.1293517554287885 0.4305045409359897 0  0.3205820557512212 1.373790064297892 0  0.2928933613730453 1.155196229839076 0  2.404969940572298 1.358123451328196 0  0.9933877375830629 0.5899302104012978 0  2.090287791367255 0.1211621925433303 0  2.904889173308855 0.28125 0  0.1246766077328953 1.375323392267105 0  2.302041695038792 0.7931069109810627 0  2.389228836127323 0.5648368411465005 0  1.886839219693261 1.174850198523801 0  1.96875 1.5 0  2.005259577028834 1.368575570359887 0  2.58746882374347 1.183267841227943 0  1.646515580921743 0.3486369169127919 0  1.980147904783248 0.5942137934419368 0  2.07740167257538 1.055304717195479 0  1.57300338334685 0.6065157750282059 0  1.59375 1.5 0  1.679678032322464 0.2100937046526968 0  2.252673654577562 0.9960348417811178 0  2.17832845930892 0.8178435559778986 0  1.78125 1.5 0  2.021596890434516 0.349571947542988 0  1.79926971381977 0.1752587163176004 0  0.503878860142697 0.3943984894172995 0  1.146622573165596 0.8060813049917908 0  3 1.40625 0  2.649807995179342 0.2020005420916801 0  0.3438742656237004 0.2790576170649142 0  1.546875 1.386334759531577 0  3 0.09375 0  1.320989371181643 0.9800954309611291 0  1.270074893254929 0.7536540780084714 0  2.70770359261854 0.4387759707667409 0  0.5606072232931772 1.296106034499297 0  0.7858104720553775 1.211812834033452 0  2.317237622700128 1.09958886094401 0  2.518665098961854 0.68166123334458 0  1.747777558052355 0.4158756118164814 0  1.683029275145126 1.069756268641544 0  0.46875 1.5 0  2.407758410849746 0.2048845882413086 0  2.396684507181482 1.235853070423643 0  1.919569286509587 0.7755948020085885 0  2.290752654053557 0.4002939182457882 0  0.2367853577638227 0.6856443876677092 0  1.644821718344275 1.219632237269969 0  0 1.03125 0  0.5821665354391095 0.7878606619613046 0  0.6422016866915001 0.674771619551397 0  0.2917070890414653 0.4458139506278615 0  0.7912018819596407 0 0  0.1045102716700244 1.249819735557644 0  1.151091219660612 0.9224858968529193 0  2.719174284445647 1.071883664029489 0  0.7216906855953001 0.918545393630683 0  0.2528020696803429 0.8787006417214202 0  1.726437981314609 0.9055659975386789 0  1.466273966174817 1.158744006060248 0  0.500278661176367 0.9948136517426003 0  1.114706325735654 0.2023659607018325 0  1.193213601931895 0.2926984867334158 0  0.9725372994821596 0.3724679154862157 0  2.214714190066689 0.1991474088029779 0  2.411776451427861 0.8179674328277735 0  1.997105232295531 1.153439169094244 0  0.497834479014996 1.390464488336983 0  0.4532232073331143 0.5868543641678674 0  0.4094710929462204 0.7215160819073434 0  0.2730945637736263 0.1927345247561336 0  2.091452909128697 0 0  1.88727127931541 0.9574017932976476 0  0.7331675361580886 0.4562359341911597 0  0.808798696301996 0.1107204599928528 0  2.794056136375906 0.2935548935723623 0  2.172174128810919 1.263645408055929 0  2.266351953173893 1.389929090293708 0  0.9205129738298803 1.252177379624563 0  2.58760749
[...]
<PointData  Tensors="f_112"> 
<DataArray  type="Float64"  Name="f_112"  NumberOfComponents="9" format="ascii">-9.0092236894340445e+00 9.1733616876062225e+00 0.0000000000000000e+00 9.1733616876062225e+00 -2.6499836432475647e+01 0.0000000000000000e+00 0.0000000000000000e+00 0.0000000000000000e+00 0.0000000000000000e+00  3.6321611021629678e+01 2.7099265254883007e+00 0.0000000000000000e+00 2.7099265254883007e+00 2.6946926603978252e+01 0.0000000000000000e+00 0.0000000000000000e+00 0.0000000000000000e+00 0.0000000000000000e+00  3.3815129336585294e+01 -3.7720277530944424e+00 0.0000000000000000e+00 -3.7720277530944424e+00 3.0210585650151060e+01 0.0000000000000000e+00 0.0000000000000000e+00 0.0000000000000000e+00 0.0000000000000000e+00  2.3779907744469799e+01 -3.9666934186860057e+00 0.0000000000000000e+00 -3.9666934186860057e+00 2.5501793003731891e+01 0.0000000000000000e+00 0.0000000000000000e+00 0.0000000000000000e+00 0.0000000000000000e+00  2.4139799816605635e+01 -6.0295264084524702e-01 0.0000000000000000e+00 -6.0295264084524702e-01 2.9641902154438867e+01 0.0000000000000000e+00 0.0000000000000000e+00 0.0000000000000000e+00 0.0000000000000000e+00  2.7925055035091138e+01 9.9760404556248461e-01 0.0000000000000000e+00 9.9760404556248461e-01 2.6461985767877149e+01 0.0000000000000000e+00 0.0000000000000000e+00 0.0000000000000000e+00 0.0000000000000000e+00  2.6484310702700672e+01 3.7534986866664155e-01 0.0000000000000000e+00 3.7534986866664161e-01 3.9409970703358887e+01 0.0000000000000000e+00 0.0000000000000000e+00 0.0000000000000000e+00 0.0000000000000000e+00  2.4800728056977444e+01 7.5829152657655934e+00 0.0000000000000000e+00 7.5829152657655934e+00 4.3692679872909522e+01 0.0000000000000000e+00 0.0000000000000000e+00 0.0000000000000000e+00 0.0000000000000000e+00  2.7724764121229274e+01 1.2715780482155809e+01 0.0000000000000000e+00 1.2715780482155809e+01 3.8780674652321743e+01 0.0000000000000000e+00 0.0000000000000000e+00 0.0000000000000000e+00 0.0000000000000000e+00  3.7758170184933611e+01 6.1665518146298295e+00 0.0000000000000000e+00 6.1665518146298295e+00 2.9453375583390958e+01 0.0000000000000000e+00 0.0000000000000000e+00 0.0000000000000000e+00 0.0000000000000000e+00  2.3375896240304563e+01 -1.8459051001971469e+00 0.0000000000000000e+00 -1.8459051001971469e+00 3.2099038876371083e+01 0.0000000000000000e+00 0.0000000000000000e+00 0.0000000000000000e+00 0.0000000000000000e+00  2.5373656110706118e+01 -3.4195301589651295e+00 0.0000000000000000e+00 -3.4195301589651295e+00 3.1853023189695914e+01 0.0000000000000000e+00 0.0000000000000000e+00 0.0000000000000000e+00 0.0000000000000000e+00  2.1679190970833535e+01 -4.5907765848392126e+00 0.0000000000000000e+00 -4.5907765848392126e+00 4.1598891244698486e+01 0.0000000000000000e+00 0.0000000000000000e+00 0.0000000000000000e+00 0.0000000000000000e+00  2.0202241999034467e+01 9.2606958103625114e-01 0.0000000000000000e+00 9.2606958103625114e-01 4.4055438060075126e+01 0.0000000000000000e+00 0.0000000000000000e+00 0.0000000000000000e+00 0.0000000000000000e+00  2.4528613477068060e+01 6.0090305872999199e+00 0.0000000000000000e+00 6.0090305872999199e+00 3.8729379056339532e+01 0.0000000000000000e+00 0.0000000000000000e+00 0.0000000000000000e+00 0.0000000000000000e+00  2.7953657106852038e+01 3.5041573874134682e+00 0.0000000000000000e+00 3.5041573874134682e+00 2.9485778215409869e+01 0.0000000000000000e+00 0.0000000000000000e+00 0.0000000000000000e+00 0.0000000000000000e+00  2.6438122733108088e+01 3.8202651583396956e+00 0.0000000000000000e+00 3.8202651583396956e+00 3.0818910302862474e+01 0.0000000000000000e+00 0.0000000000000000e+00 0.0000000000000000e+00 0.0000000000000000e+00  3.3480238962528141e+01 -1.5880477912766364e+00 0.0000000000000000e+00 -1.5880477912766364e+00 2.2705213218411537e+01 0.0000000000000000e+00 0.0000000000000000e+00 0.0000000000000000e+00 0.0000000000000000e+00  2.2282230560265134e+01 -1.1420450337851166e+01 0.0000000000000000e+00 -1.1420450337851166e+01 2.9739754904887363e+01 0.0000000000000000e+00 0.0000000000000000e+00 0.0000000000000000e+00 0.0000000000000000e+00  2.1466247164936050e+01 -1.0936099125565816e+01 0.0000000000000000e+00 -1.0936099125565816e+01 3.9234042443340485e+01 0.0000000000000000e+00 0.0000000000000000e+00 0.0000000000000000e+00 0.0000000000000000e+00  1.8842673593676430e+01 -4.3821276509481280e+00 0.0000000000000000e+00 -4.3821276509481280e+00 4.0318678333682314e+01 0.0000000000000000e+00 0.0000000000000000e+00 0.0000000000000000e+00 0.0000000000000000e+00  2.3533505012187124e+01 2.3668951737735666e+00 0.0000000000000000e+00 2.3668951737735666e+00 3.3030105840036761e+01 0.0000000000000000e+00 0.0000000000000000e+00 0.0000000000000000e+00 0.0000000000000000e+00  2.7083073392639051e+01 1.2093359401408472e-01 0.0000000000000000e+00 1.2093359401408472e-01 2.4077381783068684e+01 0.0000000000000000e+00 0.0000000000000000e+00 0.0000000000000000e+00 0.0000000000000000e+00  2.7047869351437416e+01 9.3675312451844417e-01 0.0000000000000000e+00 9.3675312451844417e-01 2.6256566778876621e+01 0.0000000000000000e+00 0.0000000000000000e+00 0.0000000000000000e+00 0.0000000000000000e+00  2.5132637462765555e+01 4.8097581380548249e+00 0.0000000000000000e+00 4.8097581380548249e+00 2.6414022959642814e+01 0.0000000000000000e+00 0.0000000000000000e+00 0.0000000000000000e+00 0.0000000000000000e+00  2.5552181831537535e+01 4.9954467404682426e+00 0.0000000000000000e+00 4.9954467404682426e+00 3.1475900493009199e+01 0.0000000000000000e+00 0.0000000000000000e+00 0.0000000000000000e+00 0.0000000000000000e+00  3.2838487906618433e+01 -2.2079837903039565e+00 0.0000000000000000e+00 -2.2079837903039565e+00 2.1552373677292721e+01 0.0000000000000000e+00 0.0000000000000000e+00 0.0000000000000000e+00 0.0000000000000000e+00  1.9215582648352676e+01 -1.0797957801444594e+01 0.0000000000000000e+00 -1.0797957801444594e+01 2.4047837417718185e+01 0.0000000000000000e+00 0.0000000000000000e+00 0.0000000000000000e+00 0.0000000000000000e+00  1.8049419627032460e+01 -1.0923853186917714e+01 0.0000000000000000e+00 -1.0923853186917714e+01 3.8854804884411820e+01 0.0000000000000000e+00 0.0000000000000000e+00 0.0000000000000000e+00 0.0000000000000000e+00  1.9391207357567239e+01 1.2918819351341406e+00 0.0000000000000000e+00 1.2918819351341406e+00 3.5734690584198248e+01 0.0000000000000000e+00 0.0000000000000000e+00 0.0000000000000000e+00 0.0000000000000000e+00  2.1606282420840021e+01 1.8962367963621705e+00 0.0000000000000000e+00 1.8962367963621705e+00 2.3385929323587391e+01 0.0000000000000000e+00 0.0000000000000000e+00 0.0000000000000000e+00 0.0000000000000000e+00  2.0937628024240183e+01 -1.2250135208705054e-01 0.0000000000000000e+00 -1.2250135208705057e-01 2.1943702077777871e+01 0.0000000000000000e+00 0.0000000000000000e+00 0.0000000000000000e+00 0.0000000000000000e+00  2.4616785238049893e+01 2.4401146806987764e+00 0.0000000000000000e+00 2.4401146806987764e+00 2.1693728791913507e+01 0.0000000000000000e+00 0.0000000000000000e+00 0.0000000000000000e+00 0.0000000000000000e+00  2.7977843841147859e+01 8.0638027049208372e+00 0.0000000000000000e+00 8.0638027049208372e+00 3.3218409886975614e+01 0.0000000000000000e+00 0.0000000000000000e+00 0.0000000000000000e+00 0.0000000000000000e+00  2.7609652508874181e+01 -1.3338062799095676e+00 0.0000000000000000e+00 -1.3338062799095676e+00 1.9707699944918954e+01 0.0000000000000000e+00 0.0000000000000000e+00 0.0000000000000000e+00 0.0000000000000000e+00  1.8668248964201972e+01 -1.1171359168264974e+01 0.0000000000000000e+00 -1.1171359168264974e+01 2.3917527280859513e+01 0.0000000000000000e+00 0.0000000000000000e+00 0.0000000000000000e+00 0.0000000000000000e+00  1.6449278502161302e+01 -7.3694743259901241e+00 0.0000000000000000e+00 -7.3694743259901241e+00 3.1553256829306871e+01 0.0000000000000000e+00 0.0000000000000000e+00 0.0000000000000000e+00 0.0000000000000000e+00  2.1624368755563808e+01 2.4447036709584258e+00 0.0000000000000000e+00 2.4447036709584258e+00 2.6124057765550784e+01 0.0000000000000000e+00 0.0000000000000000e+00 0.0000000000000000e+00 0.0000000000000000e+00  2.4128998296235807e+01 1.3983013159471682e+00 0.0000000000000000e+00 1.3983013159471682e+00 2.2263144468041947e+01 0.0000000000000000e+00 0.0000000000000000e+00 0.0000000000000000e+00 0.0000000000000000e+00  1.9369851761968086e+01 8.1302460169163615e-01 0.0000000000000000e+00 8.1302460169163615e-01 1.9120737964676582e+01 0.0000000000000000e+00 0.0000000000000000e+00 0.0000000000000000e+00 0.0000000000000000e+00  2.1353535634916593e+01 2.2423920598366456e+00 0.0000000000000000e+00 2.2423920598366456e+00 2.2800168814502314e+01 0.0000000000000000e+00 0.0000000000000000e+00 0.0000000000000000e+00 0.0000000000000000e+00  2.3821519941246006e+01 -3.4824778153907023e+00 0.0000000000000000e+00 -3.4824778153907023e+00 2.0562546977172897e+01 0.0000000000000000e+00 0.0000000000000000e+00 0.0000000000000000e+00 0.0000000000000000e+00  1.4072625961218518e+01 -3.5349178856996430e+00 0.0000000000000000e+00 -3.5349178856996430e+00 1.4825667987852247e+01 0.0000000000000000e+00 0.0000000000000000e+00 0.0000000000000000e+00 0.0000000000000000e+00  1.4463761853145966e+01 -1.5043965332610529e+00 0.0000000000000000e+00 -1.5043965332610529e+00 1.8811779183709586e+01 0.0000000000000000e+00 0.0000000000000000e+00 0.0000000000000000e+00 0.0000000000000000e+00  1.8446708656583102e+01 2.5609579905918687e+00 0.0000000000000000e+00 2.5609579905918687e+00 1.7876942162357960e+01 0.0000000000000000e+00 0.0000000000000000e+00 0.0000000000000000e+00 0.0000000000000000e+00  1.7618579255702734e+01 7.6776882453359185e-01 0.0000000000000000e+00 7.6776882453359185e-01 2.8502221654287727e+01 0.0000000000000000e+00 0.0000000000000000e+00 0.0000000000000000e+00 0.0000000000000000e+00  1.5903439042912877e+01 1.0282882471576741e+01 0.0000000000000000e+00 1.0282882471576741e+01 3.0843593989745113e+01 0.0000000000000000e+00 0.0000000000000000e+00 0.0000000000000000e+00 0.0000000000000000e+00  1.7819161097830996e+01 1.0127266067273707e+01 0.0000000000000000e+00 1.0127266067273707e+01 2.6297392484035953e+01 0.0000000000000000e+00 0.0000000000000000e+00 0.0000000000000000e+00 0.0000000000000000e+00  1.9805966320521112e+01 9.0754778535434948e+00 0.0000000000000000e+00 9.0754778535434948e+00 3.3203928530222477e+01 0.0000000000000000e+00 0.0000000000000000e+00 0.0000000000000000e+00 0.0000000000000000e+00  1.2133098305603026e+01 -1.8892015303826535e+00 0.0000000000000000e+00 -1.8892015303826535e+00 1.8157443847807439e+01 0.0000000000000000e+00 0.0000000000000000e+00 0.0000000000000000e+00 0.0000000000000000e+00  1.0565493159003685e+01 -1.8392302814658179e+00 0.0000000000000000e+00 -1.8392302814658179e+00 1.2479190217718170e+01 0.0000000000000000e+00 0.0000000000000000e+00 0.0000000000000000e+00 0.0000000000000000e+00  1.1797382734476580e+01 2.2456049440767680e+00 0.0000000000000000e+00 2.2456049440767680e+00 1.4230253259391915e+01 0.0000000000000000e+00 0.0000000000000000e+00 0.0000000000000000e+00 0.0000000000000000e+00  1.2189719973652663e+01 2.1860649482862464e+00 0.0000000000000000e+00 2.1860649482862464e+00 1.8652612085269958e+01 0.0000000000000000e+00 0.0000000000000000e+00 0.0000000000000000e+00 0.0000000000000000e+00  1.0615891358860493e+01 3.4994699903528241e+00 0.0000000000000000e+00 3.4994699903528241e+00 2.7694629212600727e+01 0.0000000000000000e+00 0.0000000000000000e+00 0.0000000000000000e+00 0.0000000000000000e+00  1.5261208314777624e+01 1.2692068687782493e+01 0.0000000000000000e+00 1.2692068687782493e+01 1.9801963497002181e+01 0.0000000000000000e+00 0.0000000000000000e+00 0.0000000000000000e+00 0.0000000000000000e+00  1.2316564648163650e+01 1.0633542274653029e+01 0.0000000000000000e+00 1.0633542274653029e+01 3.4633829940476396e+01 0.0000000000000000e+00 0.0000000000000000e+00 0.0000000000000000e+00 0.0000000000000000e+00  1.0797094342845304e+01 -1.0831704759682239e+01 0.0000000000000000e+00 -1.0831704759682239e+01 7.6648894778428600e+00 0.0000000000000000e+00 0.0000000000000000e+00 0.0000000000000000e+00 0.0000000000000000e+00  -2.7806042162655832e+01 -2.0802908287103818e+01 0.0000000000000000e+00 -2.0802908287103818e+01 -1.4098379281521591e+01 0.0000000000000000e+00 0.0000000000000000e+00 0.0000000000000000e+00 0.0000000000000000e+00  1.1959284754822253e+01 1.5613465083961611e+01 0.0000000000000000e+00 1.5613465083961611e+01 9.8346747315912033e+00 0.0000000000000000e+00 0.0000000000000000e+00 0.0000000000000000e+00 0.0000000000000000e+00  -9.6395372589009387e+00 8.4749847587265248e-01 0.0000000000000000e+00 8.4749847587265248e-01 -3.7439101229584104e+01 0.0000000000000000e+00 0.0000000000000000e+00 0.0000000000000000e+00 0.0000000000000000e+00  2.1988485040769913e+01 1.3754340574688349e+01 0.0000000000000000e+00 1.3754340574688349e+01 1.9474277514328342e+01 0.0000000000000000e+00 0.0000000000000000e+00 0.0000000000000000e+00 0.0000000000000000e+00  2.6322774027878744e+01 1.3580900396638192e+01 0.0000000000000000e+00 1.3580900396638192e+01 2.6123515516130734e+01 0.0000000000000000e+00 0.0000000000000000e+00 0.0000000000000000e+00 0.0000000000000000e+00  -1.5481676230042419e+01 5.3788025124173799e-01 0.0000000000000000e+00 5.3788025124173799e-01 -1.2474682685290036e+01 0.0000000000000000e+00 0.0000000000000000e+00 0.0000000000000000e+00 0.0000000000000000e+00  -1.6218238403203273e+01 -4.5900786479860269e-02 0.0000000000000000e+00 -4.5900786479860269e-02 -1.6559659805799161e+01 0.0000000000000000e+00 0.0000000000000000e+00 0.0000000000000000e+00 0.0000000000000000e+00  -2.0951954066094221e+00 -1.4661472455285082e+01 0.0000000000000000e+00 -1.4661472455285082e+01 -8.9239589087232785e-01 0.0000000000000000e+00 0.0000000000000000e+00 0.0000000000000000e+00 0.0000000000000000e+00  2.3894514943067824e+00 -5.8514861276368124e-02 0.0000000000000000e+00 -5.8514861276368124e-02 2.3749201352217106e+00 0.0000000000000000e+00 0.0000000000000000e+00 0.0000000000000000e+00 0.0000000000000000e+00  6.5343810791353247e+00 -8.3548482976060678e-01 0.0000000000000000e+00 -8.3548482976060678e-01 6.5475631590511982e+00 0.0000000000000000e+00 0.0000000000000000e+00 0.0000000000000000e+00 0.0000000000000000e+00  2.7817611486196148e+00 9.8346312256100840e-02 0.0000000000000000e+00 9.8346312256100826e-02 2.7960703086445502e+00 0.0000000000000000e+00 0.0000000000000000e+00 0.0000000000000000e+00 0.0000000000000000e+00  8.6402279735837908e+00 -1.0144446948097656e+00 0.0000000000000000e+00 -1.0144446948097658e+00 8.6402695413664450e+00 0.0000000000000000e+00 0.0000000000000000e+00 0.0000000000000000e+00 0.0000000000000000e+00  -1.0231552613830594e+01 5.8592970071190104e-02 0.0000000000000000e+00 5.8592970071190104e-02 -2.6056542283334156e+01 0.0000000000000000e+00 0.0000000000000000e+00 0.0000000000000000e+00 0.0000000000000000e+00  -9.6977938945000952e-01 -1.6211331076418976e+01 0.0000000000000000e+00 -1.6211331076418976e+01 -8.0813397733114867e-01 0.0000000000000000e+00 0.0000000000000000e+00 0.0000000000000000e+00 0.0000000000000000e+00  -1.3767089351681140e+01 -5.4383616402212054e+00 0.0000000000000000e+00 -5.4383616402212054e+00 -2.7900693561386674e+01 0.0000000000000000e+00 0.0000000000000000e+00 0.0000000000000000e+00 0.0000000000000000e+00  -2.0736687423076594e+00 1.0710706922576829e+00 0.0000000000000000e+00 1.0710706922576829e+00 -2.0950520439212048e+00 0.0000000000000000e+00 0.0000000000000000e+00 0.0000000000000000e+00 0.0000000000000000e+00  -8.8809331428551204e+00 4.8176445760637204e-01 0.0000000000000000e+00 4.8176445760637204e-01 -2.5335617962006847e+01 0.0000000000000000e+00 0.0000000000000000e+00 0.0000000000000000e+00 0.0000000000000000e+00  9.1702359055925797e-01 1.5243415508450244e+01 0.0000000000000000e+00 1.5243415508450244e+01 8.0093483164062140e-01 0.0000000000000000e+00 0.0000000000000000e+00 0.0000000000000000e+00 0.0000000000000000e+00  -4.0448059248577275e+00 -7.1234963834562870e-01 0.0000000000000000e+00 -7.1234963834562870e-01 -4.3158141529384073e+00 0.0000000000000000e+00 0.0000000000000000e+00 0.0000000000000000e+00 0.0000000000000000e+00  1.5389340703741620e+01 -7.4402127895571135e-01 0.0000000000000000e+00 -7.4402127895571135e-01 1.5382949429255476e+01 0.0000000000000000e+00 0.0000000000000000e+00 0.0000000000000000e+00 0.0000000000000000e+00  -2.7060564334987167e+00 -7.6703564937495439e-01 0.0000000000000000e+00 -7.6703564937495439e-01 -2.7040293861681159e+00 0.0000000000000000e+00 0.0000000000000000e+00 0.0000000000000000e+00 0.0000000000000000e+00  -1.2350264596654453e+01 -1.9306272844931407e+00 0.0000000000000000e+00 -1.9306272844931407e+00 -3.1854180116696202e+01 0.0000000000000000e+00 0.0000000000000000e+00 0.0000000000000000e+00 0.0000000000000000e+00  -7.3282136905445924e-02 -7.2780449221390808e-01 0.0000000000000000e+00 -7.2780449221390808e-01 -5.7934919237824331e-02 0.0000000000000000e+00 0.0000000000000000e+00 0.0000000000000000e+00 0.0000000000000000e+00  8.8977907986963150e+00 1.0382343924295563e+00 0.0000000000000000e+00 1.0382343924295563e+00 8.9121749192891535e+00 0.0000000000000000e+00 0.0000000000000000e+00 0.0000000000000000e+00 0.0000000000000000e+00  -2.0711917265466600e+00 -1.0720528938254080e+01 0.0000000000000000e+00 -1.0720528938254080e+01 2.0083966038743947e-01 0.0000000000000000e+00 0.0000000000000000e+00 0.0000000000000000e+00 0.0000000000000000e+00  1.0833743828022932e+01 -7.0265840358241149e-01 0.0000000000000000e+00 -7.0265840358241149e-01 1.0851771793922467e+01 0.0000000000000000e+00 0.0000000000000000e+00 0.0000000000000000e+00 0.0000000000000000e+00  1.3682654641972332e+01 -3.7748973886435200e-01 0.0000000000000000e+00 -3.7748973886435200e-01 1.3699286067570574e+01 0.0000000000000000e+00 0.0000000000000000e+00 0.0000000000000000e+00 0.0000000000000000e+00  -8.7364207396628102e-01 -6.8688237632884164e-01 0.0000000000000000e+00 -6.8688237632884164e-01 -8.7724355775551710e-01 0.0000000000000000e+00 0.0000000000000000e+00 0.0000000000000000e+00 0.0000000000000000e+00  2.6293209836417915e+00 -1.1576331115659312e-01 0.0000000000000000e+00 -1.1576331115659312e-01 2.4296663680137920e+00 0.0000000000000000e+00 0.0000000000000000e+00 0.0000000000000000e+00 0.0000000000000000e+00  -5.4685351746170596e+00 9.2648892738140931e-01 0.0000000000000000e+00 9.2648892738140931e-01 -5.4907832288747178e+00 0.0000000000000000e+00 0.0000000000000000e+00 0.0000000000000000e+00 0.0000000000000000e+00  -4.2658132169736457e-01 2.3781132674954264e-01 0.0000000000000000e+00 2.3781132674954270e-01 -4.1082213058074718e-01 0.0000000000000000e+00 0.0000000000000000e+00 0.0000000000000000e+00 0.0000000000000000e+00  1.6388958105324672e+01 -8.3570206450811679e-01 0.0000000000000000e+00 -8.3570206450811679e-01 1.6389451309719533e+01 0.0000000000000000e+00 0.0000000000000000e+00 0.0000000000000000e+00 0.0000000000000000e+00  -7.3621744806626523e+00 7.3672575771884385e-01 0.0000000000000000e+00 7.3672575771884385e-01 -7.4975467068669799e+00 0.0000000000000000e+00 0.0000000000000000e+00 0.0000000000000000e+00 0.0000000000000000e+00  7.5165682538259757e+00 -8.0575377764541212e-01 0.0000000000000000e+00 -8.0575377764541212e-01 7.6089526888420416e+00 0.0000000000000000e+00 0.0000000000000000e+00 0.0000000000000000e+00 0.0000000000000000e+00  7.9684280497268878e+00 -3.4939559832035522e-01 0.0000000000000000e+00 -3.4939559832035522e-01 7.9695953166467177e+00 0.0000000000000000e+00 0.0000000000000000e+00 0.0000000000000000e+00 0.0000000000000000e+00  4.5517712927257072e+00 -6.4312133627730328e-01 0.0000000000000000e+00 -6.4312133627730328e-01 4.5575677952329814e+00 0.0000000000000000e+00 0.0000000000000000e+00 0.0000000000000000e+00 0.0000000000000000e+00  4.7477702574916831e+00 -4.6753161146468275e-01 0.0000000000000000e+00 -4.6753161146468275e-01 4.7314565570085616e+00 0.0000000000000000e+00 0.0000000000000000e+00 0.0000000000000000e+00 0.0000000000000000e+00  -3.3994017275899351e+00 -2.7335235489735221e-01 0.0000000000000000e+00 -2.7335235489735221e-01 -3.4751324075991907e+00 0.0000000000000000e+00 0.0000000000000000e+00 0.0000000000000000e+00 0.0000000000000000e