<?xml version="1.0"?>
<VTKFile type="UnstructuredGrid"  version="0.1"  >
<UnstructuredGrid>
<Piece  NumberOfPoints="5089" NumberOfCells="9865">
<Points>
<DataArray  type="Float64"  NumberOfComponents="3"  format="ascii">0 1.5 0  0 0 0  0.1029058182573948 0 0  0.1029058182573948 0.02393156642875577 0  0.1251489251828899 0.06631226582407952 0  0.1645395112957465 0.09350162426854149 0  0.2120536680255323 0.0992708874098054 0  0.2568064746731156 0.08229838658936564 0  0.288545602565321 0.04647231720437685 0  0.3 0 0  0.51 0 0  0.5220577136594005 0.04499999999999999 0  0.555 0.07794228634059948 0  0.6 0.09 0  0.645 0.07794228634059946 0  0.6779422863405995 0.04499999999999999 0  0.6899999999999999 0 0  0.8924037639192813 0 0  0.8924037639192813 0.02287028598995353 0  0.9110081306187559 0.06465637775217206 0  0.9450000000000001 0.09526279441628825 0  0.9885018690405581 0.1093974084905101 0  1.033991869381244 0.1046162167924669 0  1.073604366699474 0.08174593080251337 0  1.100490000340686 0.04474103073833802 0  1.11 0 0  1.502905818257395 0 0  1.502905818257395 0.02393156642875577 0  1.52514892518289 0.06631226582407952 0  1.564539511295747 0.09350162426854149 0  1.612053668025532 0.0992708874098054 0  1.656806474673116 0.08229838658936564 0  1.688545602565321 0.04647231720437685 0  1.7 0 0  1.82324056211084 0 0  1.82324056211084 0.02253860454731437 0  1.847611141284377 0.06045996594834066 0  1.888614812938137 0.07918571535047463 0  1.933233201040151 0.07277055962836147 0  1.967300282626494 0.0432512653964478 0  1.98 0 0  2.202905818257395 0 0  2.202905818257395 0.02393156642875577 0  2.22514892518289 0.06631226582407952 0  2.264539511295746 0.09350162426854149 0  2.312053668025532 0.0992708874098054 0  2.356806474673115 0.08229838658936564 0  2.388545602565321 0.04647231720437685 0  2.4 0 0  2.51 0 0  2.522057713659401 0.04499999999999999 0  2.555 0.07794228634059948 0  2.6 0.09 0  2.645 0.07794228634059946 0  2.677942286340599 0.04499999999999999 0  2.69 0 0  3 0 0  3 1.5 0  0 0.75 0  1.5 1.5 0  0 0.375 0  0 0.1875 0  0.75 1.5 0  2.25 1.5 0  3 0.75 0  1.803364316093307 0.8194216192460635 0  0.7085714285714286 0.7914285714285714 0  2.396697907928333 0.698796196655595 0  1.26039230397729 0.6323879781298929 0  1.125 1.5 0  3 1.125 0  0.375 1.5 0  1.418284719659703 1.05567510076647 0  2.625 1.5 0  0 1.125 0  2.4375 1.120298797465005 0  0.4140309460188812 0.4815551607069073 0  0.9375 1.133540466589862 0  1.875 1.5 0  0.4143011358073044 1.085698864192695 0  2.042557228405723 0.4764057674039468 0  3 0.375 0  1.615235786026768 0.4839120951620492 0  0.9172436665953028 0.4786128535408891 0  2.136144598898015 0.9367443054342734 0  2.712089662802327 0.5625 0  1.752709466448716 1.168812671476193 0  2.696461986964791 0.9012929362807449 0  1.307422665144653 0.3094324321200764 0  2.0625 1.24476578117044 0  2.446405755792607 0.3860402512509704 0  0.3158723471199726 0.7836709721106835 0  1.018921994797561 0.831404696897531 0  1.521099871135537 0.7571953762650785 0  2.718190509848388 1.189592528269884 0  0.665307193508031 1.225469494285917 0  1.199897701782483 1.230481185797768 0  0.2233959957266646 1.276604004273335 0  0.6649397520368477 0.3607836886074089 0  0 0.5625 0  2.685543358160364 0.3192521589045413 0  1.775621962986754 0.2975552026784072 0  2.025654700292002 0.7195245521041802 0  0.1961827192748887 0.9897295638426992 0  1.25729921569077 0.8746334216075233 0  1.534142212444284 1.264044413891354 0  1.624439414641745 0.9597398592303362 0  2.117668421489377 0.2641528949307972 0  1.945094170902585 1.053880768096555 0  3 0.1875 0  0.6251639682912251 1.002291403912492 0  0.719601375969486 0.5727782913443102 0  0.2313942916225519 0.3335511938861402 0  0.4687668770508729 0.274248243200137 0  0.5143238740412669 0.6811446824633056 0  1.829350286632844 0.5059917594077202 0  1.082379929992235 0.3249418149194327 0  2.540679850598416 1.305492850437689 0  2.282283153018704 1.279796495628565 0  2.355666841619378 0.9154942188580675 0  0.2114722061938988 0.5448236655965607 0  3 1.3125 0  2.8125 1.5 0  2.263750685400308 0.5173381079832993 0  0.4343085727049624 1.296611441170993 0  1.6875 1.5 0  1.016037518489582 1.324553740130353 0  0.846292314151325 0.9469220663180872 0  1.122827752751251 1.035495517001457 0  1.3125 1.5 0  1.306452909128697 0 0  0.8906638629565067 0.6773217378320744 0  1.517175933126145 0.2981487507037606 0  0.7996957920902151 0.2224603600775558 0  1.446370464174038 0.5785990786868803 0  1.689965192988266 0.6625083927402473 0  0.4864273298880485 0.870473805626289 0  3 0.9375 0  2.831315819563651 1.036097903808422 0  1.106384347284952 0.5163011422226527 0  0.5625 1.5 0  0.9375 1.5 0  0.1875 1.5 0  2.0625 1.5 0  3 0.5625 0  0 0.9375 0  0 1.3125 0  2.4375 1.5 0  2.196044825237544 1.113880351688974 0  2.210431846521007 0.695834380790271 0  0.8262236946704767 1.326155809103077 0  2.523003751809735 0.8349453583788917 0  1.882533682486712 1.30904671408086 0  2.845 0 0  2.813607095438526 0.1837681344374856 0  2.298597604800397 0.280431891689246 0  1.972062138207083 0.8834951655964545 0  1.943392101370151 0.2475417334111557 0  2.828663592588797 0.4267055109367558 0  2.803791026183859 0.7364868569598708 0  2.523250359922468 0.5585816735541729 0  2.602935827188279 1.053310414780935 0  1.692458045540587 1.328962813001376 0  1.232271555781778 0.154950218767993 0  1.36985844680238 1.21899526865025 0  1.785321775315372 1.004919979330962 0  2.534633602602767 0.2439507161942105 0  0.7651985499724481 1.092302611968735 0  2.637828969450683 0.71279922663893 0  1.100469689258933 0.6843495375675052 0  1.315800235513153 0.4755545830105288 0  1.405546076805209 0.1782543944119986 0  2.826282129872177 1.326282129872177 0  0.575884497984488 0.4967904868667201 0  0.1516233666565383 0.826056857120972 0  0.3483704262380678 0.6272257636119053 0  1.568331672486121 1.108640197801574 0  1.475101554186818 0.9082985267599337 0  1.868470483419324 0.6670273102604994 0  0.3467545185571825 0.9433646607171683 0  2.15625 1.373787484318285 0  1.41742615593433 1.367603819494743 0  2.854904919456998 0.8828609574219635 0  0.9476741986655126 0.255395459587152 0  1.267450600339273 1.091056105706913 0  0.114311143675241 0.65625 0  0.65625 1.37859278398136 0  2.170651243108527 0.4023187025489676 0  1.21875 1.380886352874642 0  0.3798992233573569 0.1593768045411093 0  0.9831420651531181 0.9956358347774316 0  1.456186685150796 0.4319140716985383 0  2.586721317152155 0.4269308613840649 0  2.863979293145301 1.178604739864835 0  1.658646098314701 0.8045749301224775 0  1.383553643956373 0.7098158224076794 0  0.154006438477797 1.138458423126247 0  2.856044831401163 0.5977865618779903 0  0.553876003596687 1.130313370813194 0  2.680231675041409 1.360526450748891 0  2.486056782242186 0.9722817331473952 0  1.891212003911469 0.3789027676568836 0  0.8138227412155181 0.37102502168449 0  1.064674644221452 1.192903489156071 0  0.6045358160041144 0.2320910326486189 0  1.194008126159845 0.4081242368041457 0  2.138311355076408 0.5770795769918613 0  0.134142636330111 0.2313017261983794 0  0.8460209454012837 0.8084258449188535 0  0.1293517554287885 0.4305045409359897 0  0.3205820557512212 1.373790064297892 0  0.2928933613730453 1.155196229839076 0  2.404969940572298 1.358123451328196 0  0.9933877375830629 0.5899302104012978 0  2.090287791367255 0.1211621925433303 0  2.904889173308855 0.28125 0  0.1246766077328953 1.375323392267105 0  2.302041695038792 0.7931069109810627 0  2.389228836127323 0.5648368411465005 0  1.886839219693261 1.174850198523801 0  1.96875 1.5 0  2.005259577028834 1.368575570359887 0  2.58746882374347 1.183267841227943 0  1.646515580921743 0.3486369169127919 0  1.980147904783248 0.5942137934419368 0  2.07740167257538 1.055304717195479 0  1.57300338334685 0.6065157750282059 0  1.59375 1.5 0  1.679678032322464 0.2100937046526968 0  2.252673654577562 0.9960348417811178 0  2.17832845930892 0.8178435559778986 0  1.78125 1.5 0  2.021596890434516 0.349571947542988 0  1.79926971381977 0.1752587163176004 0  0.503878860142697 0.3943984894172995 0  1.146622573165596 0.8060813049917908 0  3 1.40625 0  2.649807995179342 0.2020005420916801 0  0.3438742656237004 0.2790576170649142 0  1.546875 1.386334759531577 0  3 0.09375 0  1.320989371181643 0.9800954309611291 0  1.270074893254929 0.7536540780084714 0  2.70770359261854 0.4387759707667409 0  0.5606072232931772 1.296106034499297 0  0.7858104720553775 1.211812834033452 0  2.317237622700128 1.09958886094401 0  2.518665098961854 0.68166123334458 0  1.747777558052355 0.4158756118164814 0  1.683029275145126 1.069756268641544 0  0.46875 1.5 0  2.407758410849746 0.2048845882413086 0  2.396684507181482 1.235853070423643 0  1.919569286509587 0.7755948020085885 0  2.290752654053557 0.4002939182457882 0  0.2367853577638227 0.6856443876677092 0  1.644821718344275 1.219632237269969 0  0 1.03125 0  0.5821665354391095 0.7878606619613046 0  0.6422016866915001 0.674771619551397 0  0.2917070890414653 0.4458139506278615 0  0.7912018819596407 0 0  0.1045102716700244 1.249819735557644 0  1.151091219660612 0.9224858968529193 0  2.719174284445647 1.071883664029489 0  0.7216906855953001 0.918545393630683 0  0.2528020696803429 0.8787006417214202 0  1.726437981314609 0.9055659975386789 0  1.466273966174817 1.158744006060248 0  0.500278661176367 0.9948136517426003 0  1.114706325735654 0.2023659607018325 0  1.193213601931895 0.2926984867334158 0  0.9725372994821596 0.3724679154862157 0  2.214714190066689 0.1991474088029779 0  2.411776451427861 0.8179674328277735 0  1.997105232295531 1.153439169094244 0  0.497834479014996 1.390464488336983 0  0.4532232073331143 0.5868543641678674 0  0.4094710929462204 0.7215160819073434 0  0.2730945637736263 0.1927345247561336 0  2.091452909128697 0 0  1.88727127931541 0.9574017932976476 0  0.7331675361580886 0.4562359341911597 0  0.808798696301996 0.1107204599928528 0  2.794056136375906 0.2935548935723623 0  2.172174128810919 1.263645408055929 0  2.266351953173893 1.389929090293708 0  0.9205129738298803 1.252177379624563 0  2.58760749
[...]
<PointData  Tensors="f_150"> 
<DataArray  type="Float64"  Name="f_150"  NumberOfComponents="9" format="ascii">-5.3055921160854913e+00 1.6115953598703134e+00 0.0000000000000000e+00 1.6115953598703134e+00 -1.9198937939405742e+01 0.0000000000000000e+00 0.0000000000000000e+00 0.0000000000000000e+00 0.0000000000000000e+00  2.4064214618493551e+01 -7.8077879217449091e+00 0.0000000000000000e+00 -7.8077879217449091e+00 2.0765095826602408e+01 0.0000000000000000e+00 0.0000000000000000e+00 0.0000000000000000e+00 0.0000000000000000e+00  2.5452526666109975e+01 -1.0378014476830908e+00 0.0000000000000000e+00 -1.0378014476830908e+00 3.3996402330447545e+01 0.0000000000000000e+00 0.0000000000000000e+00 0.0000000000000000e+00 0.0000000000000000e+00  3.4456285445739027e+01 3.5626345047853936e+00 0.0000000000000000e+00 3.5626345047853936e+00 2.1193814251367733e+01 0.0000000000000000e+00 0.0000000000000000e+00 0.0000000000000000e+00 0.0000000000000000e+00  3.6488262566242369e+01 2.5150303188398273e+00 0.0000000000000000e+00 2.5150303188398273e+00 1.4149160743376118e+01 0.0000000000000000e+00 0.0000000000000000e+00 0.0000000000000000e+00 0.0000000000000000e+00  3.0452182179031247e+01 2.9856656909868677e+00 0.0000000000000000e+00 2.9856656909868677e+00 1.6392351216831212e+01 0.0000000000000000e+00 0.0000000000000000e+00 0.0000000000000000e+00 0.0000000000000000e+00  2.9143978413554482e+01 1.1420531806736520e+01 0.0000000000000000e+00 1.1420531806736520e+01 2.0422936143530812e+01 0.0000000000000000e+00 0.0000000000000000e+00 0.0000000000000000e+00 0.0000000000000000e+00  2.6926375301944205e+01 6.3240550321934181e+00 0.0000000000000000e+00 6.3240550321934181e+00 2.6599900082232161e+01 0.0000000000000000e+00 0.0000000000000000e+00 0.0000000000000000e+00 0.0000000000000000e+00  2.1017082922405461e+01 4.7303952859624463e+00 0.0000000000000000e+00 4.7303952859624463e+00 3.3831897548176059e+01 0.0000000000000000e+00 0.0000000000000000e+00 0.0000000000000000e+00 0.0000000000000000e+00  2.4865493978118945e+01 -9.9369758316587120e+00 0.0000000000000000e+00 -9.9369758316587120e+00 1.2024100244833026e+01 0.0000000000000000e+00 0.0000000000000000e+00 0.0000000000000000e+00 0.0000000000000000e+00  2.1966765882987854e+01 -1.5219924756289627e+00 0.0000000000000000e+00 -1.5219924756289627e+00 3.0738655294247355e+01 0.0000000000000000e+00 0.0000000000000000e+00 0.0000000000000000e+00 0.0000000000000000e+00  2.0308713536803996e+01 -3.0175767088365757e-01 0.0000000000000000e+00 -3.0175767088365757e-01 3.2176179115847397e+01 0.0000000000000000e+00 0.0000000000000000e+00 0.0000000000000000e+00 0.0000000000000000e+00  1.4107878983608821e+01 1.6170580931935750e+00 0.0000000000000000e+00 1.6170580931935750e+00 3.5729393683169725e+01 0.0000000000000000e+00 0.0000000000000000e+00 0.0000000000000000e+00 0.0000000000000000e+00  1.6194466632059218e+01 7.6823890465816114e-01 0.0000000000000000e+00 7.6823890465816114e-01 3.6532010690860240e+01 0.0000000000000000e+00 0.0000000000000000e+00 0.0000000000000000e+00 0.0000000000000000e+00  1.6188524129384017e+01 -8.2045670792376801e-01 0.0000000000000000e+00 -8.2045670792376801e-01 3.3834943058222677e+01 0.0000000000000000e+00 0.0000000000000000e+00 0.0000000000000000e+00 0.0000000000000000e+00  2.2261738387492777e+01 6.9488806966178440e-01 0.0000000000000000e+00 6.9488806966178440e-01 2.9767506626971933e+01 0.0000000000000000e+00 0.0000000000000000e+00 0.0000000000000000e+00 0.0000000000000000e+00  2.2118749699512570e+01 2.0837848391655736e+00 0.0000000000000000e+00 2.0837848391655736e+00 2.8993445967982186e+01 0.0000000000000000e+00 0.0000000000000000e+00 0.0000000000000000e+00 0.0000000000000000e+00  2.2499665277941471e+01 7.5478218376619060e+00 0.0000000000000000e+00 7.5478218376619060e+00 1.5691347992624438e+01 0.0000000000000000e+00 0.0000000000000000e+00 0.0000000000000000e+00 0.0000000000000000e+00  2.0006351167351024e+01 -6.8774047210667915e+00 0.0000000000000000e+00 -6.8774047210667915e+00 3.1554004887886947e+01 0.0000000000000000e+00 0.0000000000000000e+00 0.0000000000000000e+00 0.0000000000000000e+00  1.9250631495554007e+01 -6.7576731909676715e+00 0.0000000000000000e+00 -6.7576731909676715e+00 3.2419177684960580e+01 0.0000000000000000e+00 0.0000000000000000e+00 0.0000000000000000e+00 0.0000000000000000e+00  2.2918404051594610e+01 -4.4184672791695041e+00 0.0000000000000000e+00 -4.4184672791695050e+00 2.8079982048713600e+01 0.0000000000000000e+00 0.0000000000000000e+00 0.0000000000000000e+00 0.0000000000000000e+00  2.4369540439815207e+01 -5.2547904545767796e+00 0.0000000000000000e+00 -5.2547904545767796e+00 1.8902411475220177e+01 0.0000000000000000e+00 0.0000000000000000e+00 0.0000000000000000e+00 0.0000000000000000e+00  3.0494403604381311e+01 -2.9538317990478995e+00 0.0000000000000000e+00 -2.9538317990478995e+00 1.2450236542239812e+01 0.0000000000000000e+00 0.0000000000000000e+00 0.0000000000000000e+00 0.0000000000000000e+00  3.5622686289667335e+01 -2.5092609367532281e+00 0.0000000000000000e+00 -2.5092609367532281e+00 1.0464122660787011e+01 0.0000000000000000e+00 0.0000000000000000e+00 0.0000000000000000e+00 0.0000000000000000e+00  3.5294612795832414e+01 -4.5968676277954525e+00 0.0000000000000000e+00 -4.5968676277954525e+00 1.5549807222077597e+01 0.0000000000000000e+00 0.0000000000000000e+00 0.0000000000000000e+00 0.0000000000000000e+00  3.0853148366805630e+01 -1.3606791983146445e+00 0.0000000000000000e+00 -1.3606791983146445e+00 1.9873239402336782e+01 0.0000000000000000e+00 0.0000000000000000e+00 0.0000000000000000e+00 0.0000000000000000e+00  2.0679041588003610e+01 6.3117289818319433e+00 0.0000000000000000e+00 6.3117289818319433e+00 1.7044876038436556e+01 0.0000000000000000e+00 0.0000000000000000e+00 0.0000000000000000e+00 0.0000000000000000e+00  1.9400468747259382e+01 -5.2361888372736969e+00 0.0000000000000000e+00 -5.2361888372736969e+00 2.6847087909400944e+01 0.0000000000000000e+00 0.0000000000000000e+00 0.0000000000000000e+00 0.0000000000000000e+00  1.8017968406574084e+01 -6.0811605572570135e+00 0.0000000000000000e+00 -6.0811605572570135e+00 2.7955495134178328e+01 0.0000000000000000e+00 0.0000000000000000e+00 0.0000000000000000e+00 0.0000000000000000e+00  2.5855447297626075e+01 -7.3916428919147537e+00 0.0000000000000000e+00 -7.3916428919147537e+00 1.9126012332204994e+01 0.0000000000000000e+00 0.0000000000000000e+00 0.0000000000000000e+00 0.0000000000000000e+00  2.0150836509618230e+01 -3.8334994280486363e+00 0.0000000000000000e+00 -3.8334994280486363e+00 1.3048794154062138e+01 0.0000000000000000e+00 0.0000000000000000e+00 0.0000000000000000e+00 0.0000000000000000e+00  2.4844729589858005e+01 -2.3371601169582172e+00 0.0000000000000000e+00 -2.3371601169582172e+00 1.1319684006010444e+01 0.0000000000000000e+00 0.0000000000000000e+00 0.0000000000000000e+00 0.0000000000000000e+00  3.5296176954517101e+01 -8.1675732403069912e+00 0.0000000000000000e+00 -8.1675732403069912e+00 4.5777944985184789e+00 0.0000000000000000e+00 0.0000000000000000e+00 0.0000000000000000e+00 0.0000000000000000e+00  1.8106010752503099e+01 -1.6535188735238036e+00 0.0000000000000000e+00 -1.6535188735238036e+00 2.8121159475798898e+01 0.0000000000000000e+00 0.0000000000000000e+00 0.0000000000000000e+00 0.0000000000000000e+00  1.8382978316100374e+01 7.7153798382293797e+00 0.0000000000000000e+00 7.7153798382293797e+00 1.3000719484795633e+01 0.0000000000000000e+00 0.0000000000000000e+00 0.0000000000000000e+00 0.0000000000000000e+00  2.3093174537956600e+01 -5.0633195113310485e+00 0.0000000000000000e+00 -5.0633195113310485e+00 2.2519458351854919e+01 0.0000000000000000e+00 0.0000000000000000e+00 0.0000000000000000e+00 0.0000000000000000e+00  2.1177573344098001e+01 -5.4838873249278297e+00 0.0000000000000000e+00 -5.4838873249278297e+00 2.0823436426862997e+01 0.0000000000000000e+00 0.0000000000000000e+00 0.0000000000000000e+00 0.0000000000000000e+00  2.3108774253063313e+01 -5.0006334739633687e+00 0.0000000000000000e+00 -5.0006334739633687e+00 1.5532096875359501e+01 0.0000000000000000e+00 0.0000000000000000e+00 0.0000000000000000e+00 0.0000000000000000e+00  2.2332939239924961e+01 -5.6128442170577344e+00 0.0000000000000000e+00 -5.6128442170577344e+00 1.2390555083789794e+01 0.0000000000000000e+00 0.0000000000000000e+00 0.0000000000000000e+00 0.0000000000000000e+00  2.4556543473146874e+01 -3.6770132827890172e+00 0.0000000000000000e+00 -3.6770132827890172e+00 1.0609540049860026e+01 0.0000000000000000e+00 0.0000000000000000e+00 0.0000000000000000e+00 0.0000000000000000e+00  2.7604095064956727e+01 4.8301705611571412e-02 0.0000000000000000e+00 4.8301705611571412e-02 1.2243854102958919e+01 0.0000000000000000e+00 0.0000000000000000e+00 0.0000000000000000e+00 0.0000000000000000e+00  1.4975493655008608e+01 -6.0277779541019642e-02 0.0000000000000000e+00 -6.0277779541019642e-02 2.3559065127021409e+01 0.0000000000000000e+00 0.0000000000000000e+00 0.0000000000000000e+00 0.0000000000000000e+00  2.5964767542222734e+01 4.3571957259974585e+00 0.0000000000000000e+00 4.3571957259974585e+00 1.1101908518460981e+01 0.0000000000000000e+00 0.0000000000000000e+00 0.0000000000000000e+00 0.0000000000000000e+00  2.5081204250479715e+01 3.0203064681378891e+00 0.0000000000000000e+00 3.0203064681378891e+00 8.8131320190690019e+00 0.0000000000000000e+00 0.0000000000000000e+00 0.0000000000000000e+00 0.0000000000000000e+00  2.6297802093458237e+01 1.8241499679015913e+00 0.0000000000000000e+00 1.8241499679015913e+00 4.2585826725519729e+00 0.0000000000000000e+00 0.0000000000000000e+00 0.0000000000000000e+00 0.0000000000000000e+00  1.9449346006666680e+01 4.2581692110752698e+00 0.0000000000000000e+00 4.2581692110752698e+00 1.0335341445770560e+01 0.0000000000000000e+00 0.0000000000000000e+00 0.0000000000000000e+00 0.0000000000000000e+00  1.0903285336669944e+01 5.1202816846925909e+00 0.0000000000000000e+00 5.1202816846925909e+00 2.2571079204735369e+01 0.0000000000000000e+00 0.0000000000000000e+00 0.0000000000000000e+00 0.0000000000000000e+00  1.0010600962209930e+01 5.9388138049848154e+00 0.0000000000000000e+00 5.9388138049848154e+00 2.3411757938472320e+01 0.0000000000000000e+00 0.0000000000000000e+00 0.0000000000000000e+00 0.0000000000000000e+00  1.3116360500442395e+01 2.3761049099268123e+00 0.0000000000000000e+00 2.3761049099268123e+00 2.3660522087512561e+01 0.0000000000000000e+00 0.0000000000000000e+00 0.0000000000000000e+00 0.0000000000000000e+00  2.6695132901577288e+01 1.4314173546375561e+00 0.0000000000000000e+00 1.4314173546375561e+00 6.5192922969474392e+00 0.0000000000000000e+00 0.0000000000000000e+00 0.0000000000000000e+00 0.0000000000000000e+00  2.5686880481787810e+01 2.8251662072445951e+00 0.0000000000000000e+00 2.8251662072445951e+00 -5.9852423861304749e-01 0.0000000000000000e+00 0.0000000000000000e+00 0.0000000000000000e+00 0.0000000000000000e+00  2.2997189534556888e+01 -2.3627576572796678e+00 0.0000000000000000e+00 -2.3627576572796678e+00 -2.1982991549333404e+00 0.0000000000000000e+00 0.0000000000000000e+00 0.0000000000000000e+00 0.0000000000000000e+00  1.1245576772146153e+01 -4.6198583944427938e+00 0.0000000000000000e+00 -4.6198583944427938e+00 9.0035594384490523e+00 0.0000000000000000e+00 0.0000000000000000e+00 0.0000000000000000e+00 0.0000000000000000e+00  5.4075800348953491e+00 -3.1266581616547002e+00 0.0000000000000000e+00 -3.1266581616547002e+00 2.1147238058318717e+01 0.0000000000000000e+00 0.0000000000000000e+00 0.0000000000000000e+00 0.0000000000000000e+00  -5.8085047306285431e-01 1.1314229569755673e+01 0.0000000000000000e+00 1.1314229569755673e+01 2.0269344281602091e+01 0.0000000000000000e+00 0.0000000000000000e+00 0.0000000000000000e+00 0.0000000000000000e+00  2.6439024800458468e+00 -4.3866436675266698e+00 0.0000000000000000e+00 -4.3866436675266698e+00 2.1177342285619208e+01 0.0000000000000000e+00 0.0000000000000000e+00 0.0000000000000000e+00 0.0000000000000000e+00  -1.8805080741991873e+01 2.0316705026398473e+01 0.0000000000000000e+00 2.0316705026398473e+01 -1.1860108892222305e+01 0.0000000000000000e+00 0.0000000000000000e+00 0.0000000000000000e+00 0.0000000000000000e+00  2.1161607277487779e+01 1.0297157355807455e+01 0.0000000000000000e+00 1.0297157355807455e+01 4.2544936825022328e-01 0.0000000000000000e+00 0.0000000000000000e+00 0.0000000000000000e+00 0.0000000000000000e+00  1.0375851219774940e+01 1.3297869982173550e+01 0.0000000000000000e+00 1.3297869982173550e+01 9.8081131712354335e+00 0.0000000000000000e+00 0.0000000000000000e+00 0.0000000000000000e+00 0.0000000000000000e+00  -8.7181098422011267e+00 7.7978321070161394e-01 0.0000000000000000e+00 7.7978321070161394e-01 -2.2947678012041205e+01 0.0000000000000000e+00 0.0000000000000000e+00 0.0000000000000000e+00 0.0000000000000000e+00  2.0373136779812199e+01 1.2901278029941260e+01 0.0000000000000000e+00 1.2901278029941260e+01 1.9811611366170307e+01 0.0000000000000000e+00 0.0000000000000000e+00 0.0000000000000000e+00 0.0000000000000000e+00  2.3831362329222291e+01 1.2861510091123534e+01 0.0000000000000000e+00 1.2861510091123534e+01 2.6668087997697665e+01 0.0000000000000000e+00 0.0000000000000000e+00 0.0000000000000000e+00 0.0000000000000000e+00  -1.9181412862191152e+01 1.8921797084878100e+00 0.0000000000000000e+00 1.8921797084878100e+00 -2.5807754519928849e+00 0.0000000000000000e+00 0.0000000000000000e+00 0.0000000000000000e+00 0.0000000000000000e+00  -1.7011386026851540e+01 -2.7021719938888697e+00 0.0000000000000000e+00 -2.7021719938888697e+00 -7.2873189648443315e+00 0.0000000000000000e+00 0.0000000000000000e+00 0.0000000000000000e+00 0.0000000000000000e+00  -5.8538812749934888e-01 -2.8275536530229445e+01 0.0000000000000000e+00 -2.8275536530229445e+01 -1.5672876304192498e+00 0.0000000000000000e+00 0.0000000000000000e+00 0.0000000000000000e+00 0.0000000000000000e+00  2.4140449439476317e+00 -1.2016577547039925e-01 0.0000000000000000e+00 -1.2016577547039925e-01 2.3877555623521185e+00 0.0000000000000000e+00 0.0000000000000000e+00 0.0000000000000000e+00 0.0000000000000000e+00  6.6147628248470864e+00 -1.6696673896858523e+00 0.0000000000000000e+00 -1.6696673896858523e+00 6.6408662251735304e+00 0.0000000000000000e+00 0.0000000000000000e+00 0.0000000000000000e+00 0.0000000000000000e+00  2.7929976644335124e+00 2.0584460847187652e-01 0.0000000000000000e+00 2.0584460847187652e-01 2.8412677403219799e+00 0.0000000000000000e+00 0.0000000000000000e+00 0.0000000000000000e+00 0.0000000000000000e+00  8.7109461389191907e+00 -2.0311737940432586e+00 0.0000000000000000e+00 -2.0311737940432586e+00 8.7147217716086445e+00 0.0000000000000000e+00 0.0000000000000000e+00 0.0000000000000000e+00 0.0000000000000000e+00  -8.2532140639059008e+00 1.2925455170774763e+01 0.0000000000000000e+00 1.2925455170774763e+01 -1.0413697639654966e+01 0.0000000000000000e+00 0.0000000000000000e+00 0.0000000000000000e+00 0.0000000000000000e+00  -1.5884788578017240e+01 -3.1227816919516474e+01 0.0000000000000000e+00 -3.1227816919516474e+01 -1.6330734629520323e+00 0.0000000000000000e+00 0.0000000000000000e+00 0.0000000000000000e+00 0.0000000000000000e+00  -9.7228390544085492e+00 -1.6760007523487193e+01 0.0000000000000000e+00 -1.6760007523487193e+01 -1.2553049051688527e+01 0.0000000000000000e+00 0.0000000000000000e+00 0.0000000000000000e+00 0.0000000000000000e+00  -2.0229883828953992e+00 2.1387001616905237e+00 0.0000000000000000e+00 2.1387001616905237e+00 -2.0591614476798288e+00 0.0000000000000000e+00 0.0000000000000000e+00 0.0000000000000000e+00 0.0000000000000000e+00  -8.1897435178550442e+00 4.8825936925546056e+00 0.0000000000000000e+00 4.8825936925546056e+00 -1.0193118347554806e+01 0.0000000000000000e+00 0.0000000000000000e+00 0.0000000000000000e+00 0.0000000000000000e+00  -1.2180429845578836e-02 1.3078799224090201e+01 0.0000000000000000e+00 1.3078799224090201e+01 5.9601725470161160e-01 0.0000000000000000e+00 0.0000000000000000e+00 0.0000000000000000e+00 0.0000000000000000e+00  -4.0285111291079696e+00 -1.4097690768146416e+00 0.0000000000000000e+00 -1.4097690768146416e+00 -4.5031501088548707e+00 0.0000000000000000e+00 0.0000000000000000e+00 0.0000000000000000e+00 0.0000000000000000e+00  1.5539497776149918e+01 -1.4860049405669986e+00 0.0000000000000000e+00 -1.4860049405669986e+00 1.5529931155599892e+01 0.0000000000000000e+00 0.0000000000000000e+00 0.0000000000000000e+00 0.0000000000000000e+00  -2.6535608782771969e+00 -1.5324322221093245e+00 0.0000000000000000e+00 -1.5324322221093245e+00 -2.6481620103554855e+00 0.0000000000000000e+00 0.0000000000000000e+00 0.0000000000000000e+00 0.0000000000000000e+00  -1.2208617594920732e+01 -1.3144205601255905e+01 0.0000000000000000e+00 -1.3144205601255905e+01 -1.5706964683324834e+01 0.0000000000000000e+00 0.0000000000000000e+00 0.0000000000000000e+00 0.0000000000000000e+00  -3.6211564539345827e-02 -1.4565596333810387e+00 0.0000000000000000e+00 -1.4565596333810387e+00 -7.1097738354955128e-03 0.0000000000000000e+00 0.0000000000000000e+00 0.0000000000000000e+00 0.0000000000000000e+00  8.9597110502245148e+00 2.0658213453525107e+00 0.0000000000000000e+00 2.0658213453525107e+00 8.9906459573887716e+00 0.0000000000000000e+00 0.0000000000000000e+00 0.0000000000000000e+00 0.0000000000000000e+00  1.0188096651324626e+01 -2.0781219805093976e+01 0.0000000000000000e+00 -2.0781219805093976e+01 2.3858070489237462e-01 0.0000000000000000e+00 0.0000000000000000e+00 0.0000000000000000e+00 0.0000000000000000e+00  1.0901559812533907e+01 -1.4116274683603753e+00 0.0000000000000000e+00 -1.4116274683603753e+00 1.0942571435213475e+01 0.0000000000000000e+00 0.0000000000000000e+00 0.0000000000000000e+00 0.0000000000000000e+00  1.3790585199428666e+01 -7.5184196818276350e-01 0.0000000000000000e+00 -7.5184196818276350e-01 1.3818705311197990e+01 0.0000000000000000e+00 0.0000000000000000e+00 0.0000000000000000e+00 0.0000000000000000e+00  -8.7040412265727207e-01 -1.3745975472529668e+00 0.0000000000000000e+00 -1.3745975472529668e+00 -8.8021837621223498e-01 0.0000000000000000e+00 0.0000000000000000e+00 0.0000000000000000e+00 0.0000000000000000e+00  2.6817007576478797e+00 -2.6050668807013655e-01 0.0000000000000000e+00 -2.6050668807013655e-01 2.3694714455598813e+00 0.0000000000000000e+00 0.0000000000000000e+00 0.0000000000000000e+00 0.0000000000000000e+00  -5.4440065283810277e+00 1.8426551892479519e+00 0.0000000000000000e+00 1.8426551892479519e+00 -5.4889984480508325e+00 0.0000000000000000e+00 0.0000000000000000e+00 0.0000000000000000e+00 0.0000000000000000e+00  -4.3449675995510384e-01 4.1960457129886658e-01 0.0000000000000000e+00 4.1960457129886658e-01 -3.9895216769096370e-01 0.0000000000000000e+00 0.0000000000000000e+00 0.0000000000000000e+00 0.0000000000000000e+00  1.6488655820814152e+01 -1.6720862980919771e+00 0.0000000000000000e+00 -1.6720862980919771e+00 1.6497474906837368e+01 0.0000000000000000e+00 0.0000000000000000e+00 0.0000000000000000e+00 0.0000000000000000e+00  -7.3507000373745948e+00 1.4823662856671544e+00 0.0000000000000000e+00 1.4823662856671544e+00 -7.6022088488425563e+00 0.0000000000000000e+00 0.0000000000000000e+00 0.0000000000000000e+00 0.0000000000000000e+00  7.5101651594064238e+00 -1.6386831179388319e+00 0.0000000000000000e+00 -1.6386831179388319e+00 7.7106464970934869e+00 0.0000000000000000e+00 0.0000000000000000e+00 0.0000000000000000e+00 0.0000000000000000e+00  8.0679758165382740e+00 -6.9848864392446475e-01 0.0000000000000000e+00 -6.9848864392446475e-01 8.0688445844355066e+00 0.0000000000000000e+00 0.0000000000000000e+00 0.0000000000000000e+00 0.0000000000000000e+00  4.6204252324182526e+00 -1.2825935884418227e+00 0.0000000000000000e+00 -1.2825935884418227e+00 4.6300161910638993e+00 0.0000000000000000e+00 0.0000000000000000e+00 0.0000000000000000e+00 0.0000000000000000e+00  4.8046559656125840e+00 -9.2284411779790820e-01 0.0000000000000000e+00 -9.2284411779790820e-01 4.7852784275840401e+00 0.0000000000000000e+00 0.0000000000000000e+00 0.0000000000000000e+00 0.0000000000000000e+00  -3.4596911300684901e+00 -5.6691685349696319e-01 0.0000000000000000e+00 -5.6691685349696319e-01 -3.6493124049940522e+00 0.0000000000000000e+00 0.0000000000000000e+00 0.0000000000000000e+00 0.