<?xml version="1.0"?>
<VTKFile type="UnstructuredGrid"  version="0.1"  >
<UnstructuredGrid>
<Piece  NumberOfPoints="5089" NumberOfCells="9865">
<Points>
<DataArray  type="Float64"  NumberOfComponents="3"  format="ascii">0 1.5 0  0 0 0  0.1029058182573948 0 0  0.1029058182573948 0.02393156642875577 0  0.1251489251828899 0.06631226582407952 0  0.1645395112957465 0.09350162426854149 0  0.2120536680255323 0.0992708874098054 0  0.2568064746731156 0.08229838658936564 0  0.288545602565321 0.04647231720437685 0  0.3 0 0  0.51 0 0  0.5220577136594005 0.04499999999999999 0  0.555 0.07794228634059948 0  0.6 0.09 0  0.645 0.07794228634059946 0  0.6779422863405995 0.04499999999999999 0  0.6899999999999999 0 0  0.8924037639192813 0 0  0.8924037639192813 0.02287028598995353 0  0.9110081306187559 0.06465637775217206 0  0.9450000000000001 0.09526279441628825 0  0.9885018690405581 0.1093974084905101 0  1.033991869381244 0.1046162167924669 0  1.073604366699474 0.08174593080251337 0  1.100490000340686 0.04474103073833802 0  1.11 0 0  1.502905818257395 0 0  1.502905818257395 0.02393156642875577 0  1.52514892518289 0.06631226582407952 0  1.564539511295747 0.09350162426854149 0  1.612053668025532 0.0992708874098054 0  1.656806474673116 0.08229838658936564 0  1.688545602565321 0.04647231720437685 0  1.7 0 0  1.82324056211084 0 0  1.82324056211084 0.02253860454731437 0  1.847611141284377 0.06045996594834066 0  1.888614812938137 0.07918571535047463 0  1.933233201040151 0.07277055962836147 0  1.967300282626494 0.0432512653964478 0  1.98 0 0  2.202905818257395 0 0  2.202905818257395 0.02393156642875577 0  2.22514892518289 0.06631226582407952 0  2.264539511295746 0.09350162426854149 0  2.312053668025532 0.0992708874098054 0  2.356806474673115 0.08229838658936564 0  2.388545602565321 0.04647231720437685 0  2.4 0 0  2.51 0 0  2.522057713659401 0.04499999999999999 0  2.555 0.07794228634059948 0  2.6 0.09 0  2.645 0.07794228634059946 0  2.677942286340599 0.04499999999999999 0  2.69 0 0  3 0 0  3 1.5 0  0 0.75 0  1.5 1.5 0  0 0.375 0  0 0.1875 0  0.75 1.5 0  2.25 1.5 0  3 0.75 0  1.803364316093307 0.8194216192460635 0  0.7085714285714286 0.7914285714285714 0  2.396697907928333 0.698796196655595 0  1.26039230397729 0.6323879781298929 0  1.125 1.5 0  3 1.125 0  0.375 1.5 0  1.418284719659703 1.05567510076647 0  2.625 1.5 0  0 1.125 0  2.4375 1.120298797465005 0  0.4140309460188812 0.4815551607069073 0  0.9375 1.133540466589862 0  1.875 1.5 0  0.4143011358073044 1.085698864192695 0  2.042557228405723 0.4764057674039468 0  3 0.375 0  1.615235786026768 0.4839120951620492 0  0.9172436665953028 0.4786128535408891 0  2.136144598898015 0.9367443054342734 0  2.712089662802327 0.5625 0  1.752709466448716 1.168812671476193 0  2.696461986964791 0.9012929362807449 0  1.307422665144653 0.3094324321200764 0  2.0625 1.24476578117044 0  2.446405755792607 0.3860402512509704 0  0.3158723471199726 0.7836709721106835 0  1.018921994797561 0.831404696897531 0  1.521099871135537 0.7571953762650785 0  2.718190509848388 1.189592528269884 0  0.665307193508031 1.225469494285917 0  1.199897701782483 1.230481185797768 0  0.2233959957266646 1.276604004273335 0  0.6649397520368477 0.3607836886074089 0  0 0.5625 0  2.685543358160364 0.3192521589045413 0  1.775621962986754 0.2975552026784072 0  2.025654700292002 0.7195245521041802 0  0.1961827192748887 0.9897295638426992 0  1.25729921569077 0.8746334216075233 0  1.534142212444284 1.264044413891354 0  1.624439414641745 0.9597398592303362 0  2.117668421489377 0.2641528949307972 0  1.945094170902585 1.053880768096555 0  3 0.1875 0  0.6251639682912251 1.002291403912492 0  0.719601375969486 0.5727782913443102 0  0.2313942916225519 0.3335511938861402 0  0.4687668770508729 0.274248243200137 0  0.5143238740412669 0.6811446824633056 0  1.829350286632844 0.5059917594077202 0  1.082379929992235 0.3249418149194327 0  2.540679850598416 1.305492850437689 0  2.282283153018704 1.279796495628565 0  2.355666841619378 0.9154942188580675 0  0.2114722061938988 0.5448236655965607 0  3 1.3125 0  2.8125 1.5 0  2.263750685400308 0.5173381079832993 0  0.4343085727049624 1.296611441170993 0  1.6875 1.5 0  1.016037518489582 1.324553740130353 0  0.846292314151325 0.9469220663180872 0  1.122827752751251 1.035495517001457 0  1.3125 1.5 0  1.306452909128697 0 0  0.8906638629565067 0.6773217378320744 0  1.517175933126145 0.2981487507037606 0  0.7996957920902151 0.2224603600775558 0  1.446370464174038 0.5785990786868803 0  1.689965192988266 0.6625083927402473 0  0.4864273298880485 0.870473805626289 0  3 0.9375 0  2.831315819563651 1.036097903808422 0  1.106384347284952 0.5163011422226527 0  0.5625 1.5 0  0.9375 1.5 0  0.1875 1.5 0  2.0625 1.5 0  3 0.5625 0  0 0.9375 0  0 1.3125 0  2.4375 1.5 0  2.196044825237544 1.113880351688974 0  2.210431846521007 0.695834380790271 0  0.8262236946704767 1.326155809103077 0  2.523003751809735 0.8349453583788917 0  1.882533682486712 1.30904671408086 0  2.845 0 0  2.813607095438526 0.1837681344374856 0  2.298597604800397 0.280431891689246 0  1.972062138207083 0.8834951655964545 0  1.943392101370151 0.2475417334111557 0  2.828663592588797 0.4267055109367558 0  2.803791026183859 0.7364868569598708 0  2.523250359922468 0.5585816735541729 0  2.602935827188279 1.053310414780935 0  1.692458045540587 1.328962813001376 0  1.232271555781778 0.154950218767993 0  1.36985844680238 1.21899526865025 0  1.785321775315372 1.004919979330962 0  2.534633602602767 0.2439507161942105 0  0.7651985499724481 1.092302611968735 0  2.637828969450683 0.71279922663893 0  1.100469689258933 0.6843495375675052 0  1.315800235513153 0.4755545830105288 0  1.405546076805209 0.1782543944119986 0  2.826282129872177 1.326282129872177 0  0.575884497984488 0.4967904868667201 0  0.1516233666565383 0.826056857120972 0  0.3483704262380678 0.6272257636119053 0  1.568331672486121 1.108640197801574 0  1.475101554186818 0.9082985267599337 0  1.868470483419324 0.6670273102604994 0  0.3467545185571825 0.9433646607171683 0  2.15625 1.373787484318285 0  1.41742615593433 1.367603819494743 0  2.854904919456998 0.8828609574219635 0  0.9476741986655126 0.255395459587152 0  1.267450600339273 1.091056105706913 0  0.114311143675241 0.65625 0  0.65625 1.37859278398136 0  2.170651243108527 0.4023187025489676 0  1.21875 1.380886352874642 0  0.3798992233573569 0.1593768045411093 0  0.9831420651531181 0.9956358347774316 0  1.456186685150796 0.4319140716985383 0  2.586721317152155 0.4269308613840649 0  2.863979293145301 1.178604739864835 0  1.658646098314701 0.8045749301224775 0  1.383553643956373 0.7098158224076794 0  0.154006438477797 1.138458423126247 0  2.856044831401163 0.5977865618779903 0  0.553876003596687 1.130313370813194 0  2.680231675041409 1.360526450748891 0  2.486056782242186 0.9722817331473952 0  1.891212003911469 0.3789027676568836 0  0.8138227412155181 0.37102502168449 0  1.064674644221452 1.192903489156071 0  0.6045358160041144 0.2320910326486189 0  1.194008126159845 0.4081242368041457 0  2.138311355076408 0.5770795769918613 0  0.134142636330111 0.2313017261983794 0  0.8460209454012837 0.8084258449188535 0  0.1293517554287885 0.4305045409359897 0  0.3205820557512212 1.373790064297892 0  0.2928933613730453 1.155196229839076 0  2.404969940572298 1.358123451328196 0  0.9933877375830629 0.5899302104012978 0  2.090287791367255 0.1211621925433303 0  2.904889173308855 0.28125 0  0.1246766077328953 1.375323392267105 0  2.302041695038792 0.7931069109810627 0  2.389228836127323 0.5648368411465005 0  1.886839219693261 1.174850198523801 0  1.96875 1.5 0  2.005259577028834 1.368575570359887 0  2.58746882374347 1.183267841227943 0  1.646515580921743 0.3486369169127919 0  1.980147904783248 0.5942137934419368 0  2.07740167257538 1.055304717195479 0  1.57300338334685 0.6065157750282059 0  1.59375 1.5 0  1.679678032322464 0.2100937046526968 0  2.252673654577562 0.9960348417811178 0  2.17832845930892 0.8178435559778986 0  1.78125 1.5 0  2.021596890434516 0.349571947542988 0  1.79926971381977 0.1752587163176004 0  0.503878860142697 0.3943984894172995 0  1.146622573165596 0.8060813049917908 0  3 1.40625 0  2.649807995179342 0.2020005420916801 0  0.3438742656237004 0.2790576170649142 0  1.546875 1.386334759531577 0  3 0.09375 0  1.320989371181643 0.9800954309611291 0  1.270074893254929 0.7536540780084714 0  2.70770359261854 0.4387759707667409 0  0.5606072232931772 1.296106034499297 0  0.7858104720553775 1.211812834033452 0  2.317237622700128 1.09958886094401 0  2.518665098961854 0.68166123334458 0  1.747777558052355 0.4158756118164814 0  1.683029275145126 1.069756268641544 0  0.46875 1.5 0  2.407758410849746 0.2048845882413086 0  2.396684507181482 1.235853070423643 0  1.919569286509587 0.7755948020085885 0  2.290752654053557 0.4002939182457882 0  0.2367853577638227 0.6856443876677092 0  1.644821718344275 1.219632237269969 0  0 1.03125 0  0.5821665354391095 0.7878606619613046 0  0.6422016866915001 0.674771619551397 0  0.2917070890414653 0.4458139506278615 0  0.7912018819596407 0 0  0.1045102716700244 1.249819735557644 0  1.151091219660612 0.9224858968529193 0  2.719174284445647 1.071883664029489 0  0.7216906855953001 0.918545393630683 0  0.2528020696803429 0.8787006417214202 0  1.726437981314609 0.9055659975386789 0  1.466273966174817 1.158744006060248 0  0.500278661176367 0.9948136517426003 0  1.114706325735654 0.2023659607018325 0  1.193213601931895 0.2926984867334158 0  0.9725372994821596 0.3724679154862157 0  2.214714190066689 0.1991474088029779 0  2.411776451427861 0.8179674328277735 0  1.997105232295531 1.153439169094244 0  0.497834479014996 1.390464488336983 0  0.4532232073331143 0.5868543641678674 0  0.4094710929462204 0.7215160819073434 0  0.2730945637736263 0.1927345247561336 0  2.091452909128697 0 0  1.88727127931541 0.9574017932976476 0  0.7331675361580886 0.4562359341911597 0  0.808798696301996 0.1107204599928528 0  2.794056136375906 0.2935548935723623 0  2.172174128810919 1.263645408055929 0  2.266351953173893 1.389929090293708 0  0.9205129738298803 1.252177379624563 0  2.58760749
[...]
<PointData  Tensors="f_1442"> 
<DataArray  type="Float64"  Name="f_1442"  NumberOfComponents="9" format="ascii">9.9371988569282319e+00 -7.7087541624767031e+00 0.0000000000000000e+00 -7.7087541624767031e+00 -2.0886220145521602e+01 0.0000000000000000e+00 0.0000000000000000e+00 0.0000000000000000e+00 0.0000000000000000e+00  1.6985742619377959e+01 -1.7976389782886186e+00 0.0000000000000000e+00 -1.7976389782886186e+00 3.3864736896850701e+01 0.0000000000000000e+00 0.0000000000000000e+00 0.0000000000000000e+00 0.0000000000000000e+00  4.5239262640513765e+01 -8.1515356402283015e+00 0.0000000000000000e+00 -8.1515356402283015e+00 1.6186571167246239e+01 0.0000000000000000e+00 0.0000000000000000e+00 0.0000000000000000e+00 0.0000000000000000e+00  7.6114599811673699e+01 3.0811203904227451e+01 0.0000000000000000e+00 3.0811203904227451e+01 -2.2181580687252158e+01 0.0000000000000000e+00 0.0000000000000000e+00 0.0000000000000000e+00 0.0000000000000000e+00  1.6179246570641530e+02 -1.9791060832160212e+00 0.0000000000000000e+00 -1.9791060832160212e+00 -1.1622091677442792e+02 0.0000000000000000e+00 0.0000000000000000e+00 0.0000000000000000e+00 0.0000000000000000e+00  8.2317631444595108e+01 1.5924540552402178e+01 0.0000000000000000e+00 1.5924540552402178e+01 -2.4200619387863927e+01 0.0000000000000000e+00 0.0000000000000000e+00 0.0000000000000000e+00 0.0000000000000000e+00  4.3092469638090869e+01 1.4000094523262953e+02 0.0000000000000000e+00 1.4000094523262953e+02 -1.9612008859223691e+00 0.0000000000000000e+00 0.0000000000000000e+00 0.0000000000000000e+00 0.0000000000000000e+00  3.4998238637050015e+01 2.8620067365208858e+01 0.0000000000000000e+00 2.8620067365208858e+01 2.9397944153314814e+01 0.0000000000000000e+00 0.0000000000000000e+00 0.0000000000000000e+00 0.0000000000000000e+00  -4.2991420902775225e+01 7.0789336609390418e+01 0.0000000000000000e+00 7.0789336609390418e+01 1.0357007637706879e+02 0.0000000000000000e+00 0.0000000000000000e+00 0.0000000000000000e+00 0.0000000000000000e+00  1.7821854553946849e+01 8.0102583326962540e-01 0.0000000000000000e+00 8.0102583326962540e-01 4.5720898703687944e+01 0.0000000000000000e+00 0.0000000000000000e+00 0.0000000000000000e+00 0.0000000000000000e+00  6.4274768953922035e+00 -1.3262289941202086e+01 0.0000000000000000e+00 -1.3262289941202086e+01 5.7619878937716997e+01 0.0000000000000000e+00 0.0000000000000000e+00 0.0000000000000000e+00 0.0000000000000000e+00  -5.6692358718061541e+01 -1.4405691016840276e+01 0.0000000000000000e+00 -1.4405691016840276e+01 9.7678264241863474e+01 0.0000000000000000e+00 0.0000000000000000e+00 0.0000000000000000e+00 0.0000000000000000e+00  -1.2139493087369837e+02 3.0713673950616961e+01 0.0000000000000000e+00 3.0713673950616961e+01 1.4570837366987163e+02 0.0000000000000000e+00 0.0000000000000000e+00 0.0000000000000000e+00 0.0000000000000000e+00  -3.5154015206670174e+01 9.0786557304855560e+00 0.0000000000000000e+00 9.0786557304855560e+00 9.0692887534609369e+01 0.0000000000000000e+00 0.0000000000000000e+00 0.0000000000000000e+00 0.0000000000000000e+00  -1.0189940740576324e+02 -2.3285821487319588e+01 0.0000000000000000e+00 -2.3285821487319588e+01 1.2718225262558948e+02 0.0000000000000000e+00 0.0000000000000000e+00 0.0000000000000000e+00 0.0000000000000000e+00  -3.3867011815297658e+01 1.1247673437926675e+01 0.0000000000000000e+00 1.1247673437926675e+01 8.0119885441113922e+01 0.0000000000000000e+00 0.0000000000000000e+00 0.0000000000000000e+00 0.0000000000000000e+00  1.0471430968721639e-01 8.9437315613600319e+00 0.0000000000000000e+00 8.9437315613600319e+00 5.2017949477931360e+01 0.0000000000000000e+00 0.0000000000000000e+00 0.0000000000000000e+00 0.0000000000000000e+00  4.3459693928675289e+00 6.4943949311457212e+00 0.0000000000000000e+00 6.4943949311457212e+00 2.9789866682724199e+01 0.0000000000000000e+00 0.0000000000000000e+00 0.0000000000000000e+00 0.0000000000000000e+00  -5.5831475462301739e+01 -5.4649532846937021e+01 0.0000000000000000e+00 -5.4649532846937021e+01 1.0648562165776707e+02 0.0000000000000000e+00 0.0000000000000000e+00 0.0000000000000000e+00 0.0000000000000000e+00  -8.1524052420961169e+01 -9.0615901878137734e+01 0.0000000000000000e+00 -9.0615901878137734e+01 1.1707372286361189e+02 0.0000000000000000e+00 0.0000000000000000e+00 0.0000000000000000e+00 0.0000000000000000e+00  9.6093502744555934e+00 -3.1141640237410229e+01 0.0000000000000000e+00 -3.1141640237410229e+01 3.0630577665428778e+01 0.0000000000000000e+00 0.0000000000000000e+00 0.0000000000000000e+00 0.0000000000000000e+00  2.6274947297571636e+01 -9.4286616787621895e+01 0.0000000000000000e+00 -9.4286616787621895e+01 1.2620884142116518e+01 0.0000000000000000e+00 0.0000000000000000e+00 0.0000000000000000e+00 0.0000000000000000e+00  9.1151822988922333e+01 -1.3934553085895544e+01 0.0000000000000000e+00 -1.3934553085895544e+01 -3.7008600630433321e+01 0.0000000000000000e+00 0.0000000000000000e+00 0.0000000000000000e+00 0.0000000000000000e+00  1.5142338206661140e+02 2.5716780570468682e+01 0.0000000000000000e+00 2.5716780570468682e+01 -1.2869819285853970e+02 0.0000000000000000e+00 0.0000000000000000e+00 0.0000000000000000e+00 0.0000000000000000e+00  1.0737710265978106e+02 -4.2043610389345716e+01 0.0000000000000000e+00 -4.2043610389345716e+01 -6.8278272504237933e+01 0.0000000000000000e+00 0.0000000000000000e+00 0.0000000000000000e+00 0.0000000000000000e+00  4.1994634791680909e+01 2.5431615835062993e+00 0.0000000000000000e+00 2.5431615835062993e+00 4.6944771420780063e+00 0.0000000000000000e+00 0.0000000000000000e+00 0.0000000000000000e+00 0.0000000000000000e+00  5.7872571771324228e+00 7.9116877107017070e+00 0.0000000000000000e+00 7.9116877107017070e+00 2.3681301762782287e+01 0.0000000000000000e+00 0.0000000000000000e+00 0.0000000000000000e+00 0.0000000000000000e+00  -5.5052163698099925e+01 -4.2900255091826075e+01 0.0000000000000000e+00 -4.2900255091826075e+01 8.9547321324022988e+01 0.0000000000000000e+00 0.0000000000000000e+00 0.0000000000000000e+00 0.0000000000000000e+00  -4.4595281149889225e+01 -4.3863478297169699e+01 0.0000000000000000e+00 -4.3863478297169699e+01 9.5611545577842293e+01 0.0000000000000000e+00 0.0000000000000000e+00 0.0000000000000000e+00 0.0000000000000000e+00  4.2167259119678732e+01 -7.4650553781578793e+01 0.0000000000000000e+00 -7.4650553781578793e+01 6.4789443705391152e+00 0.0000000000000000e+00 0.0000000000000000e+00 0.0000000000000000e+00 0.0000000000000000e+00  3.3408314186033365e+01 -5.9921889858294918e+01 0.0000000000000000e+00 -5.9921889858294918e+01 -1.7315485840571718e+01 0.0000000000000000e+00 0.0000000000000000e+00 0.0000000000000000e+00 0.0000000000000000e+00  1.1311427436395617e+02 2.3338203107961395e+01 0.0000000000000000e+00 2.3338203107961395e+01 -8.4558062067373243e+01 0.0000000000000000e+00 0.0000000000000000e+00 0.0000000000000000e+00 0.0000000000000000e+00  1.3577326150588161e+02 -7.3483860261457636e+01 0.0000000000000000e+00 -7.3483860261457636e+01 -7.6253477961847196e+01 0.0000000000000000e+00 0.0000000000000000e+00 0.0000000000000000e+00 0.0000000000000000e+00  2.8417909395943113e+01 5.8336981926528573e+00 0.0000000000000000e+00 5.8336981926528573e+00 1.1974725863809125e+01 0.0000000000000000e+00 0.0000000000000000e+00 0.0000000000000000e+00 0.0000000000000000e+00  1.1429774297826247e+01 6.7026750057016526e+00 0.0000000000000000e+00 6.7026750057016526e+00 2.2380143469153438e+01 0.0000000000000000e+00 0.0000000000000000e+00 0.0000000000000000e+00 0.0000000000000000e+00  -6.4064570746184168e+00 -2.0714628376778691e+01 0.0000000000000000e+00 -2.0714628376778691e+01 4.7602285085451435e+01 0.0000000000000000e+00 0.0000000000000000e+00 0.0000000000000000e+00 0.0000000000000000e+00  2.3364335951507787e+01 -3.0868055562129939e+01 0.0000000000000000e+00 -3.0868055562129939e+01 2.1139721563487790e+01 0.0000000000000000e+00 0.0000000000000000e+00 0.0000000000000000e+00 0.0000000000000000e+00  1.0680702982575232e+01 -9.0274223911989893e+01 0.0000000000000000e+00 -9.0274223911989893e+01 4.9877654213728482e+00 0.0000000000000000e+00 0.0000000000000000e+00 0.0000000000000000e+00 0.0000000000000000e+00  6.7140327713953369e+01 -3.1861793672731817e+01 0.0000000000000000e+00 -3.1861793672731817e+01 -1.9229382619684340e+01 0.0000000000000000e+00 0.0000000000000000e+00 0.0000000000000000e+00 0.0000000000000000e+00  1.1596341302407552e+02 -1.0013729447536949e+01 0.0000000000000000e+00 -1.0013729447536949e+01 -8.4654463176155062e+01 0.0000000000000000e+00 0.0000000000000000e+00 0.0000000000000000e+00 0.0000000000000000e+00  4.8710518414103127e+01 3.5972809912119703e+00 0.0000000000000000e+00 3.5972809912119703e+00 -1.7200057467050225e+01 0.0000000000000000e+00 0.0000000000000000e+00 0.0000000000000000e+00 0.0000000000000000e+00  3.5514619177272188e+01 -9.7787227858547556e+00 0.0000000000000000e+00 -9.7787227858547556e+00 8.6758929656804469e+00 0.0000000000000000e+00 0.0000000000000000e+00 0.0000000000000000e+00 0.0000000000000000e+00  7.0736448006396969e+01 3.0836876331289115e+01 0.0000000000000000e+00 3.0836876331289115e+01 -2.6420135193113474e+01 0.0000000000000000e+00 0.0000000000000000e+00 0.0000000000000000e+00 0.0000000000000000e+00  1.4187976332817846e+02 1.9700496382267787e+00 0.0000000000000000e+00 1.9700496382267787e+00 -1.1031648005469759e+02 0.0000000000000000e+00 0.0000000000000000e+00 0.0000000000000000e+00 0.0000000000000000e+00  7.5578281010063023e+01 -1.2288526472256976e+01 0.0000000000000000e+00 -1.2288526472256976e+01 -4.5004338342807472e+01 0.0000000000000000e+00 0.0000000000000000e+00 0.0000000000000000e+00 0.0000000000000000e+00  2.1683120169875501e+01 6.5454461300897890e+01 0.0000000000000000e+00 6.5454461300897890e+01 4.4020216298682806e+00 0.0000000000000000e+00 0.0000000000000000e+00 0.0000000000000000e+00 0.0000000000000000e+00  -3.4574082196220779e+01 6.9392917857649419e+00 0.0000000000000000e+00 6.9392917857649419e+00 7.6362486660944370e+01 0.0000000000000000e+00 0.0000000000000000e+00 0.0000000000000000e+00 0.0000000000000000e+00  -7.6506653058080929e+01 9.7997841934881180e+01 0.0000000000000000e+00 9.7997841934881180e+01 9.8724995783636189e+01 0.0000000000000000e+00 0.0000000000000000e+00 0.0000000000000000e+00 0.0000000000000000e+00  -1.1232934184259229e-01 -1.2327429418001627e+01 0.0000000000000000e+00 -1.2327429418001627e+01 4.4410330612374665e+01 0.0000000000000000e+00 0.0000000000000000e+00 0.0000000000000000e+00 0.0000000000000000e+00  3.4222769990126636e+01 -6.5340718276256924e+00 0.0000000000000000e+00 -6.5340718276256924e+00 -1.0228217346199923e+01 0.0000000000000000e+00 0.0000000000000000e+00 0.0000000000000000e+00 0.0000000000000000e+00  1.1896840029048128e+02 2.4098074957253033e+01 0.0000000000000000e+00 2.4098074957253033e+01 -9.2932073481876046e+01 0.0000000000000000e+00 0.0000000000000000e+00 0.0000000000000000e+00 0.0000000000000000e+00  1.0755416098384529e+02 -4.3627930915620496e+01 0.0000000000000000e+00 -4.3627930915620496e+01 -1.0273660386742360e+02 0.0000000000000000e+00 0.0000000000000000e+00 0.0000000000000000e+00 0.0000000000000000e+00  1.3474990206229034e+01 -1.1601336323039003e+01 0.0000000000000000e+00 -1.1601336323039003e+01 1.1474247597780449e+01 0.0000000000000000e+00 0.0000000000000000e+00 0.0000000000000000e+00 0.0000000000000000e+00  -6.6426475544674474e+01 -2.0469739680413188e+01 0.0000000000000000e+00 -2.0469739680413188e+01 9.6427167066537450e+01 0.0000000000000000e+00 0.0000000000000000e+00 0.0000000000000000e+00 0.0000000000000000e+00  -1.6494755132605420e+02 1.4846274052105323e+02 0.0000000000000000e+00 1.4846274052105323e+02 1.8691141241767488e+02 0.0000000000000000e+00 0.0000000000000000e+00 0.0000000000000000e+00 0.0000000000000000e+00  -6.1979309713689004e+00 -1.1331824826384924e+01 0.0000000000000000e+00 -1.1331824826384924e+01 -6.0064279279046167e+00 0.0000000000000000e+00 0.0000000000000000e+00 0.0000000000000000e+00 0.0000000000000000e+00  -1.1842290069614739e+02 1.4368443339109919e+02 0.0000000000000000e+00 1.4368443339109919e+02 -1.0076187467719308e+02 0.0000000000000000e+00 0.0000000000000000e+00 0.0000000000000000e+00 0.0000000000000000e+00  4.0817157613406761e+02 2.4400583931861362e+02 0.0000000000000000e+00 2.4400583931861362e+02 7.9671525386746154e+01 0.0000000000000000e+00 0.0000000000000000e+00 0.0000000000000000e+00 0.0000000000000000e+00  8.9455760426761373e+00 1.3000601890502594e+02 0.0000000000000000e+00 1.3000601890502594e+02 8.8015675421694546e+00 0.0000000000000000e+00 0.0000000000000000e+00 0.0000000000000000e+00 0.0000000000000000e+00  7.3980238316988007e+00 6.5906192776907311e+00 0.0000000000000000e+00 6.5906192776907311e+00 -2.0976338985544192e+01 0.0000000000000000e+00 0.0000000000000000e+00 0.0000000000000000e+00 0.0000000000000000e+00  1.9681827989498409e+01 1.3713567905100228e+02 0.0000000000000000e+00 1.3713567905100228e+02 1.5741647634732061e+01 0.0000000000000000e+00 0.0000000000000000e+00 0.0000000000000000e+00 0.0000000000000000e+00  2.0706370461556361e+01 1.4003223185035165e+02 0.0000000000000000e+00 1.4003223185035165e+02 2.6302903539663546e+01 0.0000000000000000e+00 0.0000000000000000e+00 0.0000000000000000e+00 0.0000000000000000e+00  -3.8616280710217076e+01 1.7049268569481907e+01 0.0000000000000000e+00 1.7049268569481907e+01 2.8507261702939093e+01 0.0000000000000000e+00 0.0000000000000000e+00 0.0000000000000000e+00 0.0000000000000000e+00  -2.2812909341556576e+01 -2.1884471132448134e+01 0.0000000000000000e+00 -2.1884471132448134e+01 1.6712431799674491e+01 0.0000000000000000e+00 0.0000000000000000e+00 0.0000000000000000e+00 0.0000000000000000e+00  -9.5485962612376820e+00 -2.5817516645605986e+02 0.0000000000000000e+00 -2.5817516645605986e+02 -7.0386743484089331e+00 0.0000000000000000e+00 0.0000000000000000e+00 0.0000000000000000e+00 0.0000000000000000e+00  1.4338489028369408e+00 -1.7922960225274260e+00 0.0000000000000000e+00 -1.7922960225274260e+00 1.2303084686943966e+00 0.0000000000000000e+00 0.0000000000000000e+00 0.0000000000000000e+00 0.0000000000000000e+00  5.7957239160997931e+00 -2.9294439697163789e+01 0.0000000000000000e+00 -2.9294439697163789e+01 5.3193771350669774e+00 0.0000000000000000e+00 0.0000000000000000e+00 0.0000000000000000e+00 0.0000000000000000e+00  1.7006684452805596e+00 4.1002126784445831e+00 0.0000000000000000e+00 4.1002126784445831e+00 1.9854840840533099e+00 0.0000000000000000e+00 0.0000000000000000e+00 0.0000000000000000e+00 0.0000000000000000e+00  7.6819688461639917e+00 -3.5504765044961239e+01 0.0000000000000000e+00 -3.5504765044961239e+01 7.5756074369219153e+00 0.0000000000000000e+00 0.0000000000000000e+00 0.0000000000000000e+00 0.0000000000000000e+00  -1.2608757757916534e+01 1.4312930178863888e+02 0.0000000000000000e+00 1.4312930178863888e+02 2.0189506809248692e+00 0.0000000000000000e+00 0.0000000000000000e+00 0.0000000000000000e+00 0.0000000000000000e+00  -4.0766088421395142e+02 -5.4663038707955536e+02 0.0000000000000000e+00 -5.4663038707955536e+02 -3.4271641284570272e+01 0.0000000000000000e+00 0.0000000000000000e+00 0.0000000000000000e+00 0.0000000000000000e+00  -1.5359764114702374e+01 -1.1499808981331391e+02 0.0000000000000000e+00 -1.1499808981331391e+02 -6.9149558303072279e-03 0.0000000000000000e+00 0.0000000000000000e+00 0.0000000000000000e+00 0.0000000000000000e+00  -3.4995343744824186e+00 3.7329789220716883e+01 0.0000000000000000e+00 3.7329789220716883e+01 -2.3994028121913491e+00 0.0000000000000000e+00 0.0000000000000000e+00 0.0000000000000000e+00 0.0000000000000000e+00  -1.3893341437471316e+01 6.8293492698046634e+01 0.0000000000000000e+00 6.8293492698046634e+01 2.3037231893820294e+00 0.0000000000000000e+00 0.0000000000000000e+00 0.0000000000000000e+00 0.0000000000000000e+00  -3.7731446781534221e+00 1.2856490583379428e+02 0.0000000000000000e+00 1.2856490583379428e+02 -8.9948154622222221e-01 0.0000000000000000e+00 0.0000000000000000e+00 0.0000000000000000e+00 0.0000000000000000e+00  -4.3038980763114374e+00 -1.9644675820472447e+01 0.0000000000000000e+00 -1.9644675820472447e+01 -6.7180742767544963e+00 0.0000000000000000e+00 0.0000000000000000e+00 0.0000000000000000e+00 0.0000000000000000e+00  1.4736126504642638e+01 -2.7003852332261527e+01 0.0000000000000000e+00 -2.7003852332261527e+01 1.3869150671747191e+01 0.0000000000000000e+00 0.0000000000000000e+00 0.0000000000000000e+00 0.0000000000000000e+00  -3.3356778722787377e+00 -2.7599334753643770e+01 0.0000000000000000e+00 -2.7599334753643770e+01 -4.0867504535517671e+00 0.0000000000000000e+00 0.0000000000000000e+00 0.0000000000000000e+00 0.0000000000000000e+00  -2.3191344888270379e+01 -1.4332458201277845e+02 0.0000000000000000e+00 -1.4332458201277845e+02 -1.1972399216665737e+01 0.0000000000000000e+00 0.0000000000000000e+00 0.0000000000000000e+00 0.0000000000000000e+00  -8.3866490286635531e-01 -2.5154286739593843e+01 0.0000000000000000e+00 -2.5154286739593843e+01 -1.3732789461855326e+00 0.0000000000000000e+00 0.0000000000000000e+00 0.0000000000000000e+00 0.0000000000000000e+00  7.8210870345250223e+00 3.5400844518518539e+01 0.0000000000000000e+00 3.5400844518518547e+01 8.0155484289438821e+00 0.0000000000000000e+00 0.0000000000000000e+00 0.0000000000000000e+00 0.0000000000000000e+00  1.5298138630641691e+02 -7.1807127130398129e+01 0.0000000000000000e+00 -7.1807127130398129e+01 9.1123011141613244e+00 0.0000000000000000e+00 0.0000000000000000e+00 0.0000000000000000e+00 0.0000000000000000e+00  9.4696904062384526e+00 -2.4724999017136955e+01 0.0000000000000000e+00 -2.4724999017136955e+01 1.0182297141774651e+01 0.0000000000000000e+00 0.0000000000000000e+00 0.0000000000000000e+00 0.0000000000000000e+00  1.2607283364129259e+01 -1.2426147299252527e+01 0.0000000000000000e+00 -1.2426147299252527e+01 1.2661637312943899e+01 0.0000000000000000e+00 0.0000000000000000e+00 0.0000000000000000e+00 0.0000000000000000e+00  -1.8116016874031848e+00 -2.2882529502698016e+01 0.0000000000000000e+00 -2.2882529502698016e+01 -2.0589823566936487e+00 0.0000000000000000e+00 0.0000000000000000e+00 0.0000000000000000e+00 0.0000000000000000e+00  1.9806912613037381e-01 -1.0943308154027068e+01 0.0000000000000000e+00 -1.0943308154027068e+01 4.6825415843065565e+00 0.0000000000000000e+00 0.0000000000000000e+00 0.0000000000000000e+00 0.0000000000000000e+00  -6.3402922283998659e+00 3.1682190720488769e+01 0.0000000000000000e+00 3.1682190720488769e+01 -6.8656638588568510e+00 0.0000000000000000e+00 0.0000000000000000e+00 0.0000000000000000e+00 0.0000000000000000e+00  8.8345736606856171e-02 1.0776777466303649e+01 0.0000000000000000e+00 1.0776777466303649e+01 -2.6965283227515395e+00 0.0000000000000000e+00 0.0000000000000000e+00 0.0000000000000000e+00 0.0000000000000000e+00  1.5232084142052480e+01 -2.9940255424274987e+01 0.0000000000000000e+00 -2.9940255424274987e+01 1.5431389511586142e+01 0.0000000000000000e+00 0.0000000000000000e+00 0.0000000000000000e+00 0.0000000000000000e+00  -7.3524643075626699e+00 2.7625661822358012e+01 0.0000000000000000e+00 2.7625661822358012e+01 -1.0373767695623958e+01 0.0000000000000000e+00 0.0000000000000000e+00 0.0000000000000000e+00 0.0000000000000000e+00  3.0190258572060507e+00 -3.2123792572892647e+01 0.0000000000000000e+00 -3.2123792572892647e+01 1.0251741600906149e+01 0.0000000000000000e+00 0.0000000000000000e+00 0.0000000000000000e+00 0.0000000000000000e+00  7.0944924323442784e+00 -1.1912589395603913e+01 0.0000000000000000e+00 -1.1912589395603913e+01 6.7094821435424512e+00 0.0000000000000000e+00 0.0000000000000000e+00 0.0000000000000000e+00 0.0000000000000000e+00  3.6399577100204241e+00 -2.2357031897881072e+01 0.0000000000000000e+00 -2.2357031897881072e+01 3.3436890142861535e+00 0.0000000000000000e+00 0.0000000000000000e+00 0.0000000000000000e+00 0.0000000000000000e+00  3.7749517876029652e+00 -1.5496009335084473e+01 0.0000000000000000e+00 -1.5496009335084473e+01 3.6340438939757100e+00 0.0000000000000000e+00 0.0000000000000000e+00 0.0000000000000000e+00 0.0000000000000000e+00  -1.9921674894279251e+00 2.9921294569012185e+00 0.0000000000000000e+00 2.9921294569012189e+00 -7.6802846052715337e+00 0.0000000000000000e+00 0.0000000000000000e+