<?xml version="1.0"?>
<VTKFile type="UnstructuredGrid"  version="0.1"  >
<UnstructuredGrid>
<Piece  NumberOfPoints="5089" NumberOfCells="9865">
<Points>
<DataArray  type="Float64"  NumberOfComponents="3"  format="ascii">0 1.5 0  0 0 0  0.1029058182573948 0 0  0.1029058182573948 0.02393156642875577 0  0.1251489251828899 0.06631226582407952 0  0.1645395112957465 0.09350162426854149 0  0.2120536680255323 0.0992708874098054 0  0.2568064746731156 0.08229838658936564 0  0.288545602565321 0.04647231720437685 0  0.3 0 0  0.51 0 0  0.5220577136594005 0.04499999999999999 0  0.555 0.07794228634059948 0  0.6 0.09 0  0.645 0.07794228634059946 0  0.6779422863405995 0.04499999999999999 0  0.6899999999999999 0 0  0.8924037639192813 0 0  0.8924037639192813 0.02287028598995353 0  0.9110081306187559 0.06465637775217206 0  0.9450000000000001 0.09526279441628825 0  0.9885018690405581 0.1093974084905101 0  1.033991869381244 0.1046162167924669 0  1.073604366699474 0.08174593080251337 0  1.100490000340686 0.04474103073833802 0  1.11 0 0  1.502905818257395 0 0  1.502905818257395 0.02393156642875577 0  1.52514892518289 0.06631226582407952 0  1.564539511295747 0.09350162426854149 0  1.612053668025532 0.0992708874098054 0  1.656806474673116 0.08229838658936564 0  1.688545602565321 0.04647231720437685 0  1.7 0 0  1.82324056211084 0 0  1.82324056211084 0.02253860454731437 0  1.847611141284377 0.06045996594834066 0  1.888614812938137 0.07918571535047463 0  1.933233201040151 0.07277055962836147 0  1.967300282626494 0.0432512653964478 0  1.98 0 0  2.202905818257395 0 0  2.202905818257395 0.02393156642875577 0  2.22514892518289 0.06631226582407952 0  2.264539511295746 0.09350162426854149 0  2.312053668025532 0.0992708874098054 0  2.356806474673115 0.08229838658936564 0  2.388545602565321 0.04647231720437685 0  2.4 0 0  2.51 0 0  2.522057713659401 0.04499999999999999 0  2.555 0.07794228634059948 0  2.6 0.09 0  2.645 0.07794228634059946 0  2.677942286340599 0.04499999999999999 0  2.69 0 0  3 0 0  3 1.5 0  0 0.75 0  1.5 1.5 0  0 0.375 0  0 0.1875 0  0.75 1.5 0  2.25 1.5 0  3 0.75 0  1.803364316093307 0.8194216192460635 0  0.7085714285714286 0.7914285714285714 0  2.396697907928333 0.698796196655595 0  1.26039230397729 0.6323879781298929 0  1.125 1.5 0  3 1.125 0  0.375 1.5 0  1.418284719659703 1.05567510076647 0  2.625 1.5 0  0 1.125 0  2.4375 1.120298797465005 0  0.4140309460188812 0.4815551607069073 0  0.9375 1.133540466589862 0  1.875 1.5 0  0.4143011358073044 1.085698864192695 0  2.042557228405723 0.4764057674039468 0  3 0.375 0  1.615235786026768 0.4839120951620492 0  0.9172436665953028 0.4786128535408891 0  2.136144598898015 0.9367443054342734 0  2.712089662802327 0.5625 0  1.752709466448716 1.168812671476193 0  2.696461986964791 0.9012929362807449 0  1.307422665144653 0.3094324321200764 0  2.0625 1.24476578117044 0  2.446405755792607 0.3860402512509704 0  0.3158723471199726 0.7836709721106835 0  1.018921994797561 0.831404696897531 0  1.521099871135537 0.7571953762650785 0  2.718190509848388 1.189592528269884 0  0.665307193508031 1.225469494285917 0  1.199897701782483 1.230481185797768 0  0.2233959957266646 1.276604004273335 0  0.6649397520368477 0.3607836886074089 0  0 0.5625 0  2.685543358160364 0.3192521589045413 0  1.775621962986754 0.2975552026784072 0  2.025654700292002 0.7195245521041802 0  0.1961827192748887 0.9897295638426992 0  1.25729921569077 0.8746334216075233 0  1.534142212444284 1.264044413891354 0  1.624439414641745 0.9597398592303362 0  2.117668421489377 0.2641528949307972 0  1.945094170902585 1.053880768096555 0  3 0.1875 0  0.6251639682912251 1.002291403912492 0  0.719601375969486 0.5727782913443102 0  0.2313942916225519 0.3335511938861402 0  0.4687668770508729 0.274248243200137 0  0.5143238740412669 0.6811446824633056 0  1.829350286632844 0.5059917594077202 0  1.082379929992235 0.3249418149194327 0  2.540679850598416 1.305492850437689 0  2.282283153018704 1.279796495628565 0  2.355666841619378 0.9154942188580675 0  0.2114722061938988 0.5448236655965607 0  3 1.3125 0  2.8125 1.5 0  2.263750685400308 0.5173381079832993 0  0.4343085727049624 1.296611441170993 0  1.6875 1.5 0  1.016037518489582 1.324553740130353 0  0.846292314151325 0.9469220663180872 0  1.122827752751251 1.035495517001457 0  1.3125 1.5 0  1.306452909128697 0 0  0.8906638629565067 0.6773217378320744 0  1.517175933126145 0.2981487507037606 0  0.7996957920902151 0.2224603600775558 0  1.446370464174038 0.5785990786868803 0  1.689965192988266 0.6625083927402473 0  0.4864273298880485 0.870473805626289 0  3 0.9375 0  2.831315819563651 1.036097903808422 0  1.106384347284952 0.5163011422226527 0  0.5625 1.5 0  0.9375 1.5 0  0.1875 1.5 0  2.0625 1.5 0  3 0.5625 0  0 0.9375 0  0 1.3125 0  2.4375 1.5 0  2.196044825237544 1.113880351688974 0  2.210431846521007 0.695834380790271 0  0.8262236946704767 1.326155809103077 0  2.523003751809735 0.8349453583788917 0  1.882533682486712 1.30904671408086 0  2.845 0 0  2.813607095438526 0.1837681344374856 0  2.298597604800397 0.280431891689246 0  1.972062138207083 0.8834951655964545 0  1.943392101370151 0.2475417334111557 0  2.828663592588797 0.4267055109367558 0  2.803791026183859 0.7364868569598708 0  2.523250359922468 0.5585816735541729 0  2.602935827188279 1.053310414780935 0  1.692458045540587 1.328962813001376 0  1.232271555781778 0.154950218767993 0  1.36985844680238 1.21899526865025 0  1.785321775315372 1.004919979330962 0  2.534633602602767 0.2439507161942105 0  0.7651985499724481 1.092302611968735 0  2.637828969450683 0.71279922663893 0  1.100469689258933 0.6843495375675052 0  1.315800235513153 0.4755545830105288 0  1.405546076805209 0.1782543944119986 0  2.826282129872177 1.326282129872177 0  0.575884497984488 0.4967904868667201 0  0.1516233666565383 0.826056857120972 0  0.3483704262380678 0.6272257636119053 0  1.568331672486121 1.108640197801574 0  1.475101554186818 0.9082985267599337 0  1.868470483419324 0.6670273102604994 0  0.3467545185571825 0.9433646607171683 0  2.15625 1.373787484318285 0  1.41742615593433 1.367603819494743 0  2.854904919456998 0.8828609574219635 0  0.9476741986655126 0.255395459587152 0  1.267450600339273 1.091056105706913 0  0.114311143675241 0.65625 0  0.65625 1.37859278398136 0  2.170651243108527 0.4023187025489676 0  1.21875 1.380886352874642 0  0.3798992233573569 0.1593768045411093 0  0.9831420651531181 0.9956358347774316 0  1.456186685150796 0.4319140716985383 0  2.586721317152155 0.4269308613840649 0  2.863979293145301 1.178604739864835 0  1.658646098314701 0.8045749301224775 0  1.383553643956373 0.7098158224076794 0  0.154006438477797 1.138458423126247 0  2.856044831401163 0.5977865618779903 0  0.553876003596687 1.130313370813194 0  2.680231675041409 1.360526450748891 0  2.486056782242186 0.9722817331473952 0  1.891212003911469 0.3789027676568836 0  0.8138227412155181 0.37102502168449 0  1.064674644221452 1.192903489156071 0  0.6045358160041144 0.2320910326486189 0  1.194008126159845 0.4081242368041457 0  2.138311355076408 0.5770795769918613 0  0.134142636330111 0.2313017261983794 0  0.8460209454012837 0.8084258449188535 0  0.1293517554287885 0.4305045409359897 0  0.3205820557512212 1.373790064297892 0  0.2928933613730453 1.155196229839076 0  2.404969940572298 1.358123451328196 0  0.9933877375830629 0.5899302104012978 0  2.090287791367255 0.1211621925433303 0  2.904889173308855 0.28125 0  0.1246766077328953 1.375323392267105 0  2.302041695038792 0.7931069109810627 0  2.389228836127323 0.5648368411465005 0  1.886839219693261 1.174850198523801 0  1.96875 1.5 0  2.005259577028834 1.368575570359887 0  2.58746882374347 1.183267841227943 0  1.646515580921743 0.3486369169127919 0  1.980147904783248 0.5942137934419368 0  2.07740167257538 1.055304717195479 0  1.57300338334685 0.6065157750282059 0  1.59375 1.5 0  1.679678032322464 0.2100937046526968 0  2.252673654577562 0.9960348417811178 0  2.17832845930892 0.8178435559778986 0  1.78125 1.5 0  2.021596890434516 0.349571947542988 0  1.79926971381977 0.1752587163176004 0  0.503878860142697 0.3943984894172995 0  1.146622573165596 0.8060813049917908 0  3 1.40625 0  2.649807995179342 0.2020005420916801 0  0.3438742656237004 0.2790576170649142 0  1.546875 1.386334759531577 0  3 0.09375 0  1.320989371181643 0.9800954309611291 0  1.270074893254929 0.7536540780084714 0  2.70770359261854 0.4387759707667409 0  0.5606072232931772 1.296106034499297 0  0.7858104720553775 1.211812834033452 0  2.317237622700128 1.09958886094401 0  2.518665098961854 0.68166123334458 0  1.747777558052355 0.4158756118164814 0  1.683029275145126 1.069756268641544 0  0.46875 1.5 0  2.407758410849746 0.2048845882413086 0  2.396684507181482 1.235853070423643 0  1.919569286509587 0.7755948020085885 0  2.290752654053557 0.4002939182457882 0  0.2367853577638227 0.6856443876677092 0  1.644821718344275 1.219632237269969 0  0 1.03125 0  0.5821665354391095 0.7878606619613046 0  0.6422016866915001 0.674771619551397 0  0.2917070890414653 0.4458139506278615 0  0.7912018819596407 0 0  0.1045102716700244 1.249819735557644 0  1.151091219660612 0.9224858968529193 0  2.719174284445647 1.071883664029489 0  0.7216906855953001 0.918545393630683 0  0.2528020696803429 0.8787006417214202 0  1.726437981314609 0.9055659975386789 0  1.466273966174817 1.158744006060248 0  0.500278661176367 0.9948136517426003 0  1.114706325735654 0.2023659607018325 0  1.193213601931895 0.2926984867334158 0  0.9725372994821596 0.3724679154862157 0  2.214714190066689 0.1991474088029779 0  2.411776451427861 0.8179674328277735 0  1.997105232295531 1.153439169094244 0  0.497834479014996 1.390464488336983 0  0.4532232073331143 0.5868543641678674 0  0.4094710929462204 0.7215160819073434 0  0.2730945637736263 0.1927345247561336 0  2.091452909128697 0 0  1.88727127931541 0.9574017932976476 0  0.7331675361580886 0.4562359341911597 0  0.808798696301996 0.1107204599928528 0  2.794056136375906 0.2935548935723623 0  2.172174128810919 1.263645408055929 0  2.266351953173893 1.389929090293708 0  0.9205129738298803 1.252177379624563 0  2.58760749
[...]
<PointData  Tensors="f_606"> 
<DataArray  type="Float64"  Name="f_606"  NumberOfComponents="9" format="ascii">1.1521456661788511e+01 -3.7050752411056247e+00 0.0000000000000000e+00 -3.7050752411056247e+00 -2.5821422847873507e+01 0.0000000000000000e+00 0.0000000000000000e+00 0.0000000000000000e+00 0.0000000000000000e+00  2.5810104675287810e+01 -2.1288677115410195e+00 0.0000000000000000e+00 -2.1288677115410195e+00 2.9592051338825154e+01 0.0000000000000000e+00 0.0000000000000000e+00 0.0000000000000000e+00 0.0000000000000000e+00  3.2641521738335427e+01 -3.5808111878839046e+00 0.0000000000000000e+00 -3.5808111878839046e+00 2.7817521591414383e+01 0.0000000000000000e+00 0.0000000000000000e+00 0.0000000000000000e+00 0.0000000000000000e+00  6.0988124171319264e+01 2.2476571466909562e+01 0.0000000000000000e+00 2.2476571466909562e+01 -5.9703045564606638e+00 0.0000000000000000e+00 0.0000000000000000e+00 0.0000000000000000e+00 0.0000000000000000e+00  9.6430877221577887e+01 5.7727951742013435e+00 0.0000000000000000e+00 5.7727951742013435e+00 -4.7072558512922456e+01 0.0000000000000000e+00 0.0000000000000000e+00 0.0000000000000000e+00 0.0000000000000000e+00  5.0492167633678271e+01 9.5178085633785550e+00 0.0000000000000000e+00 9.5178085633785550e+00 -3.2762277429150433e+00 0.0000000000000000e+00 0.0000000000000000e+00 0.0000000000000000e+00 0.0000000000000000e+00  3.8981101448354188e+01 7.0683022357020178e+01 0.0000000000000000e+00 7.0683022357020178e+01 8.5478724923929938e+00 0.0000000000000000e+00 0.0000000000000000e+00 0.0000000000000000e+00 0.0000000000000000e+00  3.2540870775815790e+01 2.2752584357279776e+01 0.0000000000000000e+00 2.2752584357279776e+01 2.3066969874483014e+01 0.0000000000000000e+00 0.0000000000000000e+00 0.0000000000000000e+00 0.0000000000000000e+00  -1.0614118666684144e+01 2.6175997544509446e+01 0.0000000000000000e+00 2.6175997544509446e+01 6.3216227111646468e+01 0.0000000000000000e+00 0.0000000000000000e+00 0.0000000000000000e+00 0.0000000000000000e+00  3.1726338118318509e+01 2.6496911797290963e+00 0.0000000000000000e+00 2.6496911797290963e+00 3.3282663565961627e+01 0.0000000000000000e+00 0.0000000000000000e+00 0.0000000000000000e+00 0.0000000000000000e+00  1.3154418326460529e+01 -7.4374694354168289e+00 0.0000000000000000e+00 -7.4374694354168289e+00 4.6487529884353613e+01 0.0000000000000000e+00 0.0000000000000000e+00 0.0000000000000000e+00 0.0000000000000000e+00  -1.2642642276251605e+01 -4.7547714509946433e+00 0.0000000000000000e+00 -4.7547714509946433e+00 6.2617155087123514e+01 0.0000000000000000e+00 0.0000000000000000e+00 0.0000000000000000e+00 0.0000000000000000e+00  -4.2357655939013654e+01 2.1192775310964286e+01 0.0000000000000000e+00 2.1192775310964286e+01 7.6573092855863848e+01 0.0000000000000000e+00 0.0000000000000000e+00 0.0000000000000000e+00 0.0000000000000000e+00  -1.8365868021275173e+01 3.8399015547675996e+00 0.0000000000000000e+00 3.8399015547675996e+00 6.5461166838635322e+01 0.0000000000000000e+00 0.0000000000000000e+00 0.0000000000000000e+00 0.0000000000000000e+00  -3.4780274616871488e+01 -1.4380175260937415e+01 0.0000000000000000e+00 -1.4380175260937415e+01 7.0551146784098620e+01 0.0000000000000000e+00 0.0000000000000000e+00 0.0000000000000000e+00 0.0000000000000000e+00  -1.6038869531922204e-01 3.4200739477439028e+00 0.0000000000000000e+00 3.4200739477439028e+00 5.2358969202103623e+01 0.0000000000000000e+00 0.0000000000000000e+00 0.0000000000000000e+00 0.0000000000000000e+00  1.1542095842642416e+01 4.5634965082626753e+00 0.0000000000000000e+00 4.5634965082626753e+00 4.0976331169879870e+01 0.0000000000000000e+00 0.0000000000000000e+00 0.0000000000000000e+00 0.0000000000000000e+00  1.8647993338324355e+01 5.0284030331447438e+00 0.0000000000000000e+00 5.0284030331447438e+00 2.4319990446429944e+01 0.0000000000000000e+00 0.0000000000000000e+00 0.0000000000000000e+00 0.0000000000000000e+00  -1.3246632870487430e+01 -2.8378285798398444e+01 0.0000000000000000e+00 -2.8378285798398444e+01 6.2831512805644124e+01 0.0000000000000000e+00 0.0000000000000000e+00 0.0000000000000000e+00 0.0000000000000000e+00  -2.1766018334849619e+01 -3.2562943186417215e+01 0.0000000000000000e+00 -3.2562943186417215e+01 6.5274680615221044e+01 0.0000000000000000e+00 0.0000000000000000e+00 0.0000000000000000e+00 0.0000000000000000e+00  1.8953131729806621e+01 -2.2874491715951013e+01 0.0000000000000000e+00 -2.2874491715951013e+01 2.5991946319690417e+01 0.0000000000000000e+00 0.0000000000000000e+00 0.0000000000000000e+00 0.0000000000000000e+00  3.2053706006865966e+01 -4.3857759094909682e+01 0.0000000000000000e+00 -4.3857759094909682e+01 1.3845239211176740e+01 0.0000000000000000e+00 0.0000000000000000e+00 0.0000000000000000e+00 0.0000000000000000e+00  6.1779618285319565e+01 -9.5271294541642355e+00 0.0000000000000000e+00 -9.5271294541642355e+00 -1.2248997622233604e+01 0.0000000000000000e+00 0.0000000000000000e+00 0.0000000000000000e+00 0.0000000000000000e+00  9.2073885204646075e+01 1.8059669685991986e+00 0.0000000000000000e+00 1.8059669685991986e+00 -4.8426172932177572e+01 0.0000000000000000e+00 0.0000000000000000e+00 0.0000000000000000e+00 0.0000000000000000e+00  7.9885084447449628e+01 -3.1428690464211162e+01 0.0000000000000000e+00 -3.1428690464211162e+01 -3.5192283168867469e+01 0.0000000000000000e+00 0.0000000000000000e+00 0.0000000000000000e+00 0.0000000000000000e+00  4.1379197166111169e+01 -1.2810514478539597e+01 0.0000000000000000e+00 -1.2810514478539597e+01 -5.4343129467334428e-01 0.0000000000000000e+00 0.0000000000000000e+00 0.0000000000000000e+00 0.0000000000000000e+00  1.8253395289983239e+01 5.3243050386204009e+00 0.0000000000000000e+00 5.3243050386204009e+00 2.2068519926885720e+01 0.0000000000000000e+00 0.0000000000000000e+00 0.0000000000000000e+00 0.0000000000000000e+00  -9.8210282447495914e+00 -2.1672049207462962e+01 0.0000000000000000e+00 -2.1672049207462962e+01 5.1769349807486464e+01 0.0000000000000000e+00 0.0000000000000000e+00 0.0000000000000000e+00 0.0000000000000000e+00  -7.8428183447920903e+00 -1.9784847687105191e+01 0.0000000000000000e+00 -1.9784847687105191e+01 5.4271351082142935e+01 0.0000000000000000e+00 0.0000000000000000e+00 0.0000000000000000e+00 0.0000000000000000e+00  3.8059724044805535e+01 -4.4679528322309139e+01 0.0000000000000000e+00 -4.4679528322309139e+01 9.8341450199856251e+00 0.0000000000000000e+00 0.0000000000000000e+00 0.0000000000000000e+00 0.0000000000000000e+00  2.6820329803021657e+01 -2.6980205010198528e+01 0.0000000000000000e+00 -2.6980205010198528e+01 -2.4493181286013912e+00 0.0000000000000000e+00 0.0000000000000000e+00 0.0000000000000000e+00 0.0000000000000000e+00  6.4076234334231515e+01 5.0857955587732793e+00 0.0000000000000000e+00 5.0857955587732793e+00 -2.9097653603755688e+01 0.0000000000000000e+00 0.0000000000000000e+00 0.0000000000000000e+00 0.0000000000000000e+00  8.5386293690048149e+01 -4.4594672071530084e+01 0.0000000000000000e+00 -4.4594672071530084e+01 -4.3691600713065441e+01 0.0000000000000000e+00 0.0000000000000000e+00 0.0000000000000000e+00 0.0000000000000000e+00  1.9606812168365860e+01 -1.5596121640226108e+00 0.0000000000000000e+00 -1.5596121640226108e+00 2.4714001424576761e+01 0.0000000000000000e+00 0.0000000000000000e+00 0.0000000000000000e+00 0.0000000000000000e+00  1.9820104962037881e+01 2.9650555628872577e+00 0.0000000000000000e+00 2.9650555628872577e+00 2.3702676939127986e+01 0.0000000000000000e+00 0.0000000000000000e+00 0.0000000000000000e+00 0.0000000000000000e+00  1.5235634192319129e+01 -1.0511205699916484e+01 0.0000000000000000e+00 -1.0511205699916484e+01 3.0882284592904796e+01 0.0000000000000000e+00 0.0000000000000000e+00 0.0000000000000000e+00 0.0000000000000000e+00  2.7284884857033681e+01 -1.9270323028169031e+01 0.0000000000000000e+00 -1.9270323028169031e+01 1.4103609094001492e+01 0.0000000000000000e+00 0.0000000000000000e+00 0.0000000000000000e+00 0.0000000000000000e+00  2.7766938029368696e+01 -4.0633326341654175e+01 0.0000000000000000e+00 -4.0633326341654175e+01 4.4106719272522525e+00 0.0000000000000000e+00 0.0000000000000000e+00 0.0000000000000000e+00 0.0000000000000000e+00  3.9488597913301319e+01 -2.1349608379790585e+01 0.0000000000000000e+00 -2.1349608379790585e+01 -2.7605862677038941e-02 0.0000000000000000e+00 0.0000000000000000e+00 0.0000000000000000e+00 0.0000000000000000e+00  6.4736140155585218e+01 -1.5714010164709631e+01 0.0000000000000000e+00 -1.5714010164709631e+01 -3.1498189006872643e+01 0.0000000000000000e+00 0.0000000000000000e+00 0.0000000000000000e+00 0.0000000000000000e+00  4.8493934959583264e+01 -1.9037617848391659e+00 0.0000000000000000e+00 -1.9037617848391659e+00 -1.2953117007416557e+01 0.0000000000000000e+00 0.0000000000000000e+00 0.0000000000000000e+00 0.0000000000000000e+00  2.3268576800098806e+01 -4.2308089084667628e+00 0.0000000000000000e+00 -4.2308089084667628e+00 1.9910928150679503e+01 0.0000000000000000e+00 0.0000000000000000e+00 0.0000000000000000e+00 0.0000000000000000e+00  5.7641249264824673e+01 2.2868077419284994e+01 0.0000000000000000e+00 2.2868077419284994e+01 -1.7214978190841325e+01 0.0000000000000000e+00 0.0000000000000000e+00 0.0000000000000000e+00 0.0000000000000000e+00  7.4378826225594537e+01 1.2838460148749906e+01 0.0000000000000000e+00 1.2838460148749906e+01 -4.3501387706067462e+01 0.0000000000000000e+00 0.0000000000000000e+00 0.0000000000000000e+00 0.0000000000000000e+00  5.3092469068389683e+01 -8.2982951547674144e+00 0.0000000000000000e+00 -8.2982951547674144e+00 -2.1849657898427633e+01 0.0000000000000000e+00 0.0000000000000000e+00 0.0000000000000000e+00 0.0000000000000000e+00  2.5434761628886221e+01 3.6017283193918104e+01 0.0000000000000000e+00 3.6017283193918104e+01 4.9327764809133443e+00 0.0000000000000000e+00 0.0000000000000000e+00 0.0000000000000000e+00 0.0000000000000000e+00  -3.5545462784317117e+00 1.0904916563296148e+01 0.0000000000000000e+00 1.0904916563296148e+01 3.9672804193693466e+01 0.0000000000000000e+00 0.0000000000000000e+00 0.0000000000000000e+00 0.0000000000000000e+00  -2.3549025273578472e+01 3.3603307536858182e+01 0.0000000000000000e+00 3.3603307536858182e+01 5.0068534338902253e+01 0.0000000000000000e+00 0.0000000000000000e+00 0.0000000000000000e+00 0.0000000000000000e+00  5.6073653667641059e+00 -9.8314516842728121e+00 0.0000000000000000e+00 -9.8314516842728121e+00 2.9361329176809498e+01 0.0000000000000000e+00 0.0000000000000000e+00 0.0000000000000000e+00 0.0000000000000000e+00  5.0074922303156235e+01 4.1717942861369313e+00 0.0000000000000000e+00 4.1717942861369313e+00 -2.1945012204021442e+01 0.0000000000000000e+00 0.0000000000000000e+00 0.0000000000000000e+00 0.0000000000000000e+00  7.6776437995392484e+01 2.4393123218038497e+01 0.0000000000000000e+00 2.4393123218038497e+01 -5.7107176446119112e+01 0.0000000000000000e+00 0.0000000000000000e+00 0.0000000000000000e+00 0.0000000000000000e+00  7.2972344068756826e+01 -2.7578938503508901e+01 0.0000000000000000e+00 -2.7578938503508901e+01 -6.1024539278688671e+01 0.0000000000000000e+00 0.0000000000000000e+00 0.0000000000000000e+00 0.0000000000000000e+00  1.3950943450301926e+01 -1.3623090525138188e+01 0.0000000000000000e+00 -1.3623090525138188e+01 5.5628823070548554e+00 0.0000000000000000e+00 0.0000000000000000e+00 0.0000000000000000e+00 0.0000000000000000e+00  -2.0394944967351886e+01 -1.2408647984759375e+01 0.0000000000000000e+00 -1.2408647984759375e+01 4.9325370453816710e+01 0.0000000000000000e+00 0.0000000000000000e+00 0.0000000000000000e+00 0.0000000000000000e+00  -5.0796546928180256e+01 5.6181599474173247e+01 0.0000000000000000e+00 5.6181599474173247e+01 7.1469019683941198e+01 0.0000000000000000e+00 0.0000000000000000e+00 0.0000000000000000e+00 0.0000000000000000e+00  -9.6405167412676978e+00 -2.0667474583966960e+01 0.0000000000000000e+00 -2.0667474583966960e+01 1.2563653107904580e+01 0.0000000000000000e+00 0.0000000000000000e+00 0.0000000000000000e+00 0.0000000000000000e+00  -6.3321384388111497e+01 7.1504602830527546e+01 0.0000000000000000e+00 7.1504602830527546e+01 -4.2024976892285522e+01 0.0000000000000000e+00 0.0000000000000000e+00 0.0000000000000000e+00 0.0000000000000000e+00  2.4699928595841703e+02 1.4261084979409043e+02 0.0000000000000000e+00 1.4261084979409043e+02 4.3377451748757679e+01 0.0000000000000000e+00 0.0000000000000000e+00 0.0000000000000000e+00 0.0000000000000000e+00  9.7206728791783874e+00 6.9578629247813112e+01 0.0000000000000000e+00 6.9578629247813112e+01 9.2976000250557895e+00 0.0000000000000000e+00 0.0000000000000000e+00 0.0000000000000000e+00 0.0000000000000000e+00  9.9906135768985271e-01 3.9802011993523716e+00 0.0000000000000000e+00 3.9802011993523716e+00 -2.3614439616897190e+01 0.0000000000000000e+00 0.0000000000000000e+00 0.0000000000000000e+00 0.0000000000000000e+00  1.9866757367931861e+01 7.0301850292718868e+01 0.0000000000000000e+00 7.0301850292718868e+01 1.8309181007237751e+01 0.0000000000000000e+00 0.0000000000000000e+00 0.0000000000000000e+00 0.0000000000000000e+00  1.9341678328939434e+01 6.9174174187773957e+01 0.0000000000000000e+00 6.9174174187773957e+01 3.0074552977820858e+01 0.0000000000000000e+00 0.0000000000000000e+00 0.0000000000000000e+00 0.0000000000000000e+00  -3.7337868946221000e+01 7.4509041186451404e+00 0.0000000000000000e+00 7.4509041186451404e+00 1.4289449309130610e+01 0.0000000000000000e+00 0.0000000000000000e+00 0.0000000000000000e+00 0.0000000000000000e+00  -2.6287711024675634e+01 -1.3492922098049448e+01 0.0000000000000000e+00 -1.3492922098049448e+01 4.0317856373895227e+00 0.0000000000000000e+00 0.0000000000000000e+00 0.0000000000000000e+00 0.0000000000000000e+00  -2.1799774145656694e+00 -1.4639590142638031e+02 0.0000000000000000e+00 -1.4639590142638031e+02 -4.3264182558411273e+00 0.0000000000000000e+00 0.0000000000000000e+00 0.0000000000000000e+00 0.0000000000000000e+00  2.2214954500715720e+00 -7.9127145565448231e-01 0.0000000000000000e+00 -7.9127145565448231e-01 2.0984999241929860e+00 0.0000000000000000e+00 0.0000000000000000e+00 0.0000000000000000e+00 0.0000000000000000e+00  6.3461608883133920e+00 -1.1586990050972505e+01 0.0000000000000000e+00 -1.1586990050972505e+01 6.4469776370149541e+00 0.0000000000000000e+00 0.0000000000000000e+00 0.0000000000000000e+00 0.0000000000000000e+00  2.4926178974334623e+00 1.7409772623419648e+00 0.0000000000000000e+00 1.7409772623419648e+00 2.8057708909963881e+00 0.0000000000000000e+00 0.0000000000000000e+00 0.0000000000000000e+00 0.0000000000000000e+00  8.4522576852981555e+00 -1.4114391718003283e+01 0.0000000000000000e+00 -1.4114391718003283e+01 8.4953065281757389e+00 0.0000000000000000e+00 0.0000000000000000e+00 0.0000000000000000e+00 0.0000000000000000e+00  -5.7267706267962097e+00 7.3808679859029837e+01 0.0000000000000000e+00 7.3808679859029837e+01 -5.5921150026934656e+00 0.0000000000000000e+00 0.0000000000000000e+00 0.0000000000000000e+00 0.0000000000000000e+00  -1.1975294318780594e+02 -1.8570471035771178e+02 0.0000000000000000e+00 -1.8570471035771178e+02 -5.5293702249372156e+00 0.0000000000000000e+00 0.0000000000000000e+00 0.0000000000000000e+00 0.0000000000000000e+00  -1.3813952324801486e+01 -6.6257112077894746e+01 0.0000000000000000e+00 -6.6257112077894746e+01 -8.8851030201614591e+00 0.0000000000000000e+00 0.0000000000000000e+00 0.0000000000000000e+00 0.0000000000000000e+00  -2.2148372417209226e+00 1.4803390213764420e+01 0.0000000000000000e+00 1.4803390213764422e+01 -2.2313524936009692e+00 0.0000000000000000e+00 0.0000000000000000e+00 0.0000000000000000e+00 0.0000000000000000e+00  -5.1829888686758556e+00 3.2879540627553936e+01 0.0000000000000000e+00 3.2879540627553936e+01 -4.2138568788978139e+00 0.0000000000000000e+00 0.0000000000000000e+00 0.0000000000000000e+00 0.0000000000000000e+00  -1.3805560762570595e+00 6.9605093685249386e+01 0.0000000000000000e+00 6.9605093685249386e+01 6.9752020989460173e-01 0.0000000000000000e+00 0.0000000000000000e+00 0.0000000000000000e+00 0.0000000000000000e+00  -3.5936941599799646e+00 -9.4269500824082826e+00 0.0000000000000000e+00 -9.4269500824082826e+00 -5.6404387104838261e+00 0.0000000000000000e+00 0.0000000000000000e+00 0.0000000000000000e+00 0.0000000000000000e+00  1.5266140252162977e+01 -1.0364204078750538e+01 0.0000000000000000e+00 -1.0364204078750538e+01 1.5176326099276716e+01 0.0000000000000000e+00 0.0000000000000000e+00 0.0000000000000000e+00 0.0000000000000000e+00  -2.8420698505609279e+00 -1.0663085059881903e+01 0.0000000000000000e+00 -1.0663085059881903e+01 -2.8773179054980349e+00 0.0000000000000000e+00 0.0000000000000000e+00 0.0000000000000000e+00 0.0000000000000000e+00  -1.5042204719853977e+01 -7.3822082175657883e+01 0.0000000000000000e+00 -7.3822082175657883e+01 -1.3273872162751017e+01 0.0000000000000000e+00 0.0000000000000000e+00 0.0000000000000000e+00 0.0000000000000000e+00  -2.5851553684825129e-01 -1.0136050735142129e+01 0.0000000000000000e+00 -1.0136050735142126e+01 -1.9553342364932197e-01 0.0000000000000000e+00 0.0000000000000000e+00 0.0000000000000000e+00 0.0000000000000000e+00  8.6215459266094641e+00 1.4216467203610618e+01 0.0000000000000000e+00 1.4216467203610614e+01 8.9367862322367682e+00 0.0000000000000000e+00 0.0000000000000000e+00 0.0000000000000000e+00 0.0000000000000000e+00  7.0631051682434162e+01 -1.0247567504585601e+02 0.0000000000000000e+00 -1.0247567504585601e+02 -5.9717884929159020e+00 0.0000000000000000e+00 0.0000000000000000e+00 0.0000000000000000e+00 0.0000000000000000e+00  1.0595958020582206e+01 -9.8298197551159632e+00 0.0000000000000000e+00 -9.8298197551159632e+00 1.0844915467608807e+01 0.0000000000000000e+00 0.0000000000000000e+00 0.0000000000000000e+00 0.0000000000000000e+00  1.3485908044156233e+01 -5.1421787415408655e+00 0.0000000000000000e+00 -5.1421787415408655e+00 1.3634401571458456e+01 0.0000000000000000e+00 0.0000000000000000e+00 0.0000000000000000e+00 0.0000000000000000e+00  -9.8181781068171514e-01 -9.5095109346738091e+00 0.0000000000000000e+00 -9.5095109346738091e+00 -1.1391560808886150e+00 0.0000000000000000e+00 0.0000000000000000e+00 0.0000000000000000e+00 0.0000000000000000e+00  2.3565704919494186e+00 -2.3019724511526856e+00 0.0000000000000000e+00 -2.3019724511526864e+00 2.4820068589744801e+00 0.0000000000000000e+00 0.0000000000000000e+00 0.0000000000000000e+00 0.0000000000000000e+00  -5.5179428461399613e+00 1.2617299224404144e+01 0.0000000000000000e+00 1.2617299224404144e+01 -5.8445247771517232e+00 0.0000000000000000e+00 0.0000000000000000e+00 0.0000000000000000e+00 0.0000000000000000e+00  -3.0761794804394149e-01 2.8384347642275767e+00 0.0000000000000000e+00 2.8384347642275785e+00 -8.4438127405379326e-01 0.0000000000000000e+00 0.0000000000000000e+00 0.0000000000000000e+00 0.0000000000000000e+00  1.6147493023590265e+01 -1.1642256114837028e+01 0.0000000000000000e+00 -1.1642256114837028e+01 1.6341380359302814e+01 0.0000000000000000e+00 0.0000000000000000e+00 0.0000000000000000e+00 0.0000000000000000e+00  -7.1232211430339492e+00 1.0554661278253709e+01 0.0000000000000000e+00 1.0554661278253709e+01 -8.4622224862385416e+00 0.0000000000000000e+00 0.0000000000000000e+00 0.0000000000000000e+00 0.0000000000000000e+00  6.4333192893200755e+00 -1.1782231829784189e+01 0.0000000000000000e+00 -1.1782231829784189e+01 8.2912814473593066e+00 0.0000000000000000e+00 0.0000000000000000e+00 0.0000000000000000e+00 0.0000000000000000e+00  7.8455595818626920e+00 -4.8383548330692614e+00 0.0000000000000000e+00 -4.8383548330692614e+00 7.7827161481261999e+00 0.0000000000000000e+00 0.0000000000000000e+00 0.0000000000000000e+00 0.0000000000000000e+00  4.3735935187287129e+00 -8.8752707858162481e+00 0.0000000000000000e+00 -8.8752707858162481e+00 4.4032600421058801e+00 0.0000000000000000e+00 0.0000000000000000e+00 0.0000000000000000e+00 0.0000000000000000e+00  4.6058697196710874e+00 -6.2344462009495958e+00 0.0000000000000000e+00 -6.2344462009495958e+00 4.5275270424283427e+00 0.0000000000000000e+00 0.0000000000000000e+00 0.0000000000000000e+00 0.0000000000000000e+00  -2.8431132855108157e+00 -3.2618579483468655e+00 0.0000000000000000e+00 -3.2618579483468655e+00 -5.0074788233014891e+00 0.0000000000000000e+00 0.0000000000000000