<?xml version="1.0"?>
<VTKFile type="UnstructuredGrid"  version="0.1"  >
<UnstructuredGrid>
<Piece  NumberOfPoints="5089" NumberOfCells="9865">
<Points>
<DataArray  type="Float64"  NumberOfComponents="3"  format="ascii">0 1.5 0  0 0 0  0.1029058182573948 0 0  0.1029058182573948 0.02393156642875577 0  0.1251489251828899 0.06631226582407952 0  0.1645395112957465 0.09350162426854149 0  0.2120536680255323 0.0992708874098054 0  0.2568064746731156 0.08229838658936564 0  0.288545602565321 0.04647231720437685 0  0.3 0 0  0.51 0 0  0.5220577136594005 0.04499999999999999 0  0.555 0.07794228634059948 0  0.6 0.09 0  0.645 0.07794228634059946 0  0.6779422863405995 0.04499999999999999 0  0.6899999999999999 0 0  0.8924037639192813 0 0  0.8924037639192813 0.02287028598995353 0  0.9110081306187559 0.06465637775217206 0  0.9450000000000001 0.09526279441628825 0  0.9885018690405581 0.1093974084905101 0  1.033991869381244 0.1046162167924669 0  1.073604366699474 0.08174593080251337 0  1.100490000340686 0.04474103073833802 0  1.11 0 0  1.502905818257395 0 0  1.502905818257395 0.02393156642875577 0  1.52514892518289 0.06631226582407952 0  1.564539511295747 0.09350162426854149 0  1.612053668025532 0.0992708874098054 0  1.656806474673116 0.08229838658936564 0  1.688545602565321 0.04647231720437685 0  1.7 0 0  1.82324056211084 0 0  1.82324056211084 0.02253860454731437 0  1.847611141284377 0.06045996594834066 0  1.888614812938137 0.07918571535047463 0  1.933233201040151 0.07277055962836147 0  1.967300282626494 0.0432512653964478 0  1.98 0 0  2.202905818257395 0 0  2.202905818257395 0.02393156642875577 0  2.22514892518289 0.06631226582407952 0  2.264539511295746 0.09350162426854149 0  2.312053668025532 0.0992708874098054 0  2.356806474673115 0.08229838658936564 0  2.388545602565321 0.04647231720437685 0  2.4 0 0  2.51 0 0  2.522057713659401 0.04499999999999999 0  2.555 0.07794228634059948 0  2.6 0.09 0  2.645 0.07794228634059946 0  2.677942286340599 0.04499999999999999 0  2.69 0 0  3 0 0  3 1.5 0  0 0.75 0  1.5 1.5 0  0 0.375 0  0 0.1875 0  0.75 1.5 0  2.25 1.5 0  3 0.75 0  1.803364316093307 0.8194216192460635 0  0.7085714285714286 0.7914285714285714 0  2.396697907928333 0.698796196655595 0  1.26039230397729 0.6323879781298929 0  1.125 1.5 0  3 1.125 0  0.375 1.5 0  1.418284719659703 1.05567510076647 0  2.625 1.5 0  0 1.125 0  2.4375 1.120298797465005 0  0.4140309460188812 0.4815551607069073 0  0.9375 1.133540466589862 0  1.875 1.5 0  0.4143011358073044 1.085698864192695 0  2.042557228405723 0.4764057674039468 0  3 0.375 0  1.615235786026768 0.4839120951620492 0  0.9172436665953028 0.4786128535408891 0  2.136144598898015 0.9367443054342734 0  2.712089662802327 0.5625 0  1.752709466448716 1.168812671476193 0  2.696461986964791 0.9012929362807449 0  1.307422665144653 0.3094324321200764 0  2.0625 1.24476578117044 0  2.446405755792607 0.3860402512509704 0  0.3158723471199726 0.7836709721106835 0  1.018921994797561 0.831404696897531 0  1.521099871135537 0.7571953762650785 0  2.718190509848388 1.189592528269884 0  0.665307193508031 1.225469494285917 0  1.199897701782483 1.230481185797768 0  0.2233959957266646 1.276604004273335 0  0.6649397520368477 0.3607836886074089 0  0 0.5625 0  2.685543358160364 0.3192521589045413 0  1.775621962986754 0.2975552026784072 0  2.025654700292002 0.7195245521041802 0  0.1961827192748887 0.9897295638426992 0  1.25729921569077 0.8746334216075233 0  1.534142212444284 1.264044413891354 0  1.624439414641745 0.9597398592303362 0  2.117668421489377 0.2641528949307972 0  1.945094170902585 1.053880768096555 0  3 0.1875 0  0.6251639682912251 1.002291403912492 0  0.719601375969486 0.5727782913443102 0  0.2313942916225519 0.3335511938861402 0  0.4687668770508729 0.274248243200137 0  0.5143238740412669 0.6811446824633056 0  1.829350286632844 0.5059917594077202 0  1.082379929992235 0.3249418149194327 0  2.540679850598416 1.305492850437689 0  2.282283153018704 1.279796495628565 0  2.355666841619378 0.9154942188580675 0  0.2114722061938988 0.5448236655965607 0  3 1.3125 0  2.8125 1.5 0  2.263750685400308 0.5173381079832993 0  0.4343085727049624 1.296611441170993 0  1.6875 1.5 0  1.016037518489582 1.324553740130353 0  0.846292314151325 0.9469220663180872 0  1.122827752751251 1.035495517001457 0  1.3125 1.5 0  1.306452909128697 0 0  0.8906638629565067 0.6773217378320744 0  1.517175933126145 0.2981487507037606 0  0.7996957920902151 0.2224603600775558 0  1.446370464174038 0.5785990786868803 0  1.689965192988266 0.6625083927402473 0  0.4864273298880485 0.870473805626289 0  3 0.9375 0  2.831315819563651 1.036097903808422 0  1.106384347284952 0.5163011422226527 0  0.5625 1.5 0  0.9375 1.5 0  0.1875 1.5 0  2.0625 1.5 0  3 0.5625 0  0 0.9375 0  0 1.3125 0  2.4375 1.5 0  2.196044825237544 1.113880351688974 0  2.210431846521007 0.695834380790271 0  0.8262236946704767 1.326155809103077 0  2.523003751809735 0.8349453583788917 0  1.882533682486712 1.30904671408086 0  2.845 0 0  2.813607095438526 0.1837681344374856 0  2.298597604800397 0.280431891689246 0  1.972062138207083 0.8834951655964545 0  1.943392101370151 0.2475417334111557 0  2.828663592588797 0.4267055109367558 0  2.803791026183859 0.7364868569598708 0  2.523250359922468 0.5585816735541729 0  2.602935827188279 1.053310414780935 0  1.692458045540587 1.328962813001376 0  1.232271555781778 0.154950218767993 0  1.36985844680238 1.21899526865025 0  1.785321775315372 1.004919979330962 0  2.534633602602767 0.2439507161942105 0  0.7651985499724481 1.092302611968735 0  2.637828969450683 0.71279922663893 0  1.100469689258933 0.6843495375675052 0  1.315800235513153 0.4755545830105288 0  1.405546076805209 0.1782543944119986 0  2.826282129872177 1.326282129872177 0  0.575884497984488 0.4967904868667201 0  0.1516233666565383 0.826056857120972 0  0.3483704262380678 0.6272257636119053 0  1.568331672486121 1.108640197801574 0  1.475101554186818 0.9082985267599337 0  1.868470483419324 0.6670273102604994 0  0.3467545185571825 0.9433646607171683 0  2.15625 1.373787484318285 0  1.41742615593433 1.367603819494743 0  2.854904919456998 0.8828609574219635 0  0.9476741986655126 0.255395459587152 0  1.267450600339273 1.091056105706913 0  0.114311143675241 0.65625 0  0.65625 1.37859278398136 0  2.170651243108527 0.4023187025489676 0  1.21875 1.380886352874642 0  0.3798992233573569 0.1593768045411093 0  0.9831420651531181 0.9956358347774316 0  1.456186685150796 0.4319140716985383 0  2.586721317152155 0.4269308613840649 0  2.863979293145301 1.178604739864835 0  1.658646098314701 0.8045749301224775 0  1.383553643956373 0.7098158224076794 0  0.154006438477797 1.138458423126247 0  2.856044831401163 0.5977865618779903 0  0.553876003596687 1.130313370813194 0  2.680231675041409 1.360526450748891 0  2.486056782242186 0.9722817331473952 0  1.891212003911469 0.3789027676568836 0  0.8138227412155181 0.37102502168449 0  1.064674644221452 1.192903489156071 0  0.6045358160041144 0.2320910326486189 0  1.194008126159845 0.4081242368041457 0  2.138311355076408 0.5770795769918613 0  0.134142636330111 0.2313017261983794 0  0.8460209454012837 0.8084258449188535 0  0.1293517554287885 0.4305045409359897 0  0.3205820557512212 1.373790064297892 0  0.2928933613730453 1.155196229839076 0  2.404969940572298 1.358123451328196 0  0.9933877375830629 0.5899302104012978 0  2.090287791367255 0.1211621925433303 0  2.904889173308855 0.28125 0  0.1246766077328953 1.375323392267105 0  2.302041695038792 0.7931069109810627 0  2.389228836127323 0.5648368411465005 0  1.886839219693261 1.174850198523801 0  1.96875 1.5 0  2.005259577028834 1.368575570359887 0  2.58746882374347 1.183267841227943 0  1.646515580921743 0.3486369169127919 0  1.980147904783248 0.5942137934419368 0  2.07740167257538 1.055304717195479 0  1.57300338334685 0.6065157750282059 0  1.59375 1.5 0  1.679678032322464 0.2100937046526968 0  2.252673654577562 0.9960348417811178 0  2.17832845930892 0.8178435559778986 0  1.78125 1.5 0  2.021596890434516 0.349571947542988 0  1.79926971381977 0.1752587163176004 0  0.503878860142697 0.3943984894172995 0  1.146622573165596 0.8060813049917908 0  3 1.40625 0  2.649807995179342 0.2020005420916801 0  0.3438742656237004 0.2790576170649142 0  1.546875 1.386334759531577 0  3 0.09375 0  1.320989371181643 0.9800954309611291 0  1.270074893254929 0.7536540780084714 0  2.70770359261854 0.4387759707667409 0  0.5606072232931772 1.296106034499297 0  0.7858104720553775 1.211812834033452 0  2.317237622700128 1.09958886094401 0  2.518665098961854 0.68166123334458 0  1.747777558052355 0.4158756118164814 0  1.683029275145126 1.069756268641544 0  0.46875 1.5 0  2.407758410849746 0.2048845882413086 0  2.396684507181482 1.235853070423643 0  1.919569286509587 0.7755948020085885 0  2.290752654053557 0.4002939182457882 0  0.2367853577638227 0.6856443876677092 0  1.644821718344275 1.219632237269969 0  0 1.03125 0  0.5821665354391095 0.7878606619613046 0  0.6422016866915001 0.674771619551397 0  0.2917070890414653 0.4458139506278615 0  0.7912018819596407 0 0  0.1045102716700244 1.249819735557644 0  1.151091219660612 0.9224858968529193 0  2.719174284445647 1.071883664029489 0  0.7216906855953001 0.918545393630683 0  0.2528020696803429 0.8787006417214202 0  1.726437981314609 0.9055659975386789 0  1.466273966174817 1.158744006060248 0  0.500278661176367 0.9948136517426003 0  1.114706325735654 0.2023659607018325 0  1.193213601931895 0.2926984867334158 0  0.9725372994821596 0.3724679154862157 0  2.214714190066689 0.1991474088029779 0  2.411776451427861 0.8179674328277735 0  1.997105232295531 1.153439169094244 0  0.497834479014996 1.390464488336983 0  0.4532232073331143 0.5868543641678674 0  0.4094710929462204 0.7215160819073434 0  0.2730945637736263 0.1927345247561336 0  2.091452909128697 0 0  1.88727127931541 0.9574017932976476 0  0.7331675361580886 0.4562359341911597 0  0.808798696301996 0.1107204599928528 0  2.794056136375906 0.2935548935723623 0  2.172174128810919 1.263645408055929 0  2.266351953173893 1.389929090293708 0  0.9205129738298803 1.252177379624563 0  2.58760749
[...]
<PointData  Tensors="f_986"> 
<DataArray  type="Float64"  Name="f_986"  NumberOfComponents="9" format="ascii">1.2635071346980585e+01 -5.7855605951563103e+00 0.0000000000000000e+00 -5.7855605951563103e+00 -2.4509927859642534e+01 0.0000000000000000e+00 0.0000000000000000e+00 0.0000000000000000e+00 0.0000000000000000e+00  2.1909071231084216e+01 -2.4091472850818638e+00 0.0000000000000000e+00 -2.4091472850818638e+00 3.0740564155196193e+01 0.0000000000000000e+00 0.0000000000000000e+00 0.0000000000000000e+00 0.0000000000000000e+00  4.0005675127139924e+01 -5.6241276614656428e+00 0.0000000000000000e+00 -5.6241276614656428e+00 2.1102448424713184e+01 0.0000000000000000e+00 0.0000000000000000e+00 0.0000000000000000e+00 0.0000000000000000e+00  7.2522500937645631e+01 2.8841462151917810e+01 0.0000000000000000e+00 2.8841462151917810e+01 -1.7728179860667204e+01 0.0000000000000000e+00 0.0000000000000000e+00 0.0000000000000000e+00 0.0000000000000000e+00  1.2956701871689378e+02 4.0925203142027788e+00 0.0000000000000000e+00 4.0925203142027788e+00 -8.1465268418686534e+01 0.0000000000000000e+00 0.0000000000000000e+00 0.0000000000000000e+00 0.0000000000000000e+00  6.4923057760733187e+01 1.3863363938150671e+01 0.0000000000000000e+00 1.3863363938150671e+01 -1.4016376627262876e+01 0.0000000000000000e+00 0.0000000000000000e+00 0.0000000000000000e+00 0.0000000000000000e+00  4.2813191181634508e+01 1.0444117799127838e+02 0.0000000000000000e+00 1.0444117799127838e+02 2.6693847441392093e+00 0.0000000000000000e+00 0.0000000000000000e+00 0.0000000000000000e+00 0.0000000000000000e+00  3.4613428763327455e+01 2.8737695844018198e+01 0.0000000000000000e+00 2.8737695844018198e+01 2.6131236555443532e+01 0.0000000000000000e+00 0.0000000000000000e+00 0.0000000000000000e+00 0.0000000000000000e+00  -2.6185587741114134e+01 4.5233542688055572e+01 0.0000000000000000e+00 4.5233542688055572e+01 8.1315391019910791e+01 0.0000000000000000e+00 0.0000000000000000e+00 0.0000000000000000e+00 0.0000000000000000e+00  2.5298682694534168e+01 8.5540008619207342e-01 0.0000000000000000e+00 8.5540008619207342e-01 3.8275452627725016e+01 0.0000000000000000e+00 0.0000000000000000e+00 0.0000000000000000e+00 0.0000000000000000e+00  9.8309293686296844e+00 -1.0192164363429274e+01 0.0000000000000000e+00 -1.0192164363429274e+01 5.2495932511057816e+01 0.0000000000000000e+00 0.0000000000000000e+00 0.0000000000000000e+00 0.0000000000000000e+00  -3.3678702225201810e+01 -9.6110029514093807e+00 0.0000000000000000e+00 -9.6110029514093807e+00 7.9803229279524430e+01 0.0000000000000000e+00 0.0000000000000000e+00 0.0000000000000000e+00 0.0000000000000000e+00  -7.9825448080576990e+01 2.8154665539435165e+01 0.0000000000000000e+00 2.8154665539435165e+01 1.0743320739462499e+02 0.0000000000000000e+00 0.0000000000000000e+00 0.0000000000000000e+00 0.0000000000000000e+00  -3.1502385038309733e+01 6.3317631033301334e+00 0.0000000000000000e+00 6.3317631033301334e+00 8.0948136314389160e+01 0.0000000000000000e+00 0.0000000000000000e+00 0.0000000000000000e+00 0.0000000000000000e+00  -6.7584155044568490e+01 -2.0224185410359674e+01 0.0000000000000000e+00 -2.0224185410359674e+01 9.6628211991857654e+01 0.0000000000000000e+00 0.0000000000000000e+00 0.0000000000000000e+00 0.0000000000000000e+00  -1.5503707931317360e+01 6.7328999096723470e+00 0.0000000000000000e+00 6.7328999096723470e+00 6.5713841782345781e+01 0.0000000000000000e+00 0.0000000000000000e+00 0.0000000000000000e+00 0.0000000000000000e+00  6.2370665242317882e+00 6.3857616842183349e+00 0.0000000000000000e+00 6.3857616842183349e+00 4.6553713038151294e+01 0.0000000000000000e+00 0.0000000000000000e+00 0.0000000000000000e+00 0.0000000000000000e+00  1.2987320156635535e+01 6.4552653978748991e+00 0.0000000000000000e+00 6.4552653978748991e+00 2.5301528428127614e+01 0.0000000000000000e+00 0.0000000000000000e+00 0.0000000000000000e+00 0.0000000000000000e+00  -3.4145193046442998e+01 -4.3288382665978787e+01 0.0000000000000000e+00 -4.3288382665978787e+01 8.2037140376770495e+01 0.0000000000000000e+00 0.0000000000000000e+00 0.0000000000000000e+00 0.0000000000000000e+00  -5.0351660043727229e+01 -5.5233360053060274e+01 0.0000000000000000e+00 -5.5233360053060274e+01 8.8350150631711983e+01 0.0000000000000000e+00 0.0000000000000000e+00 0.0000000000000000e+00 0.0000000000000000e+00  1.5141150974359265e+01 -3.0508467217304208e+01 0.0000000000000000e+00 -3.0508467217304208e+01 2.7181754618974320e+01 0.0000000000000000e+00 0.0000000000000000e+00 0.0000000000000000e+00 0.0000000000000000e+00  3.1255680342999693e+01 -6.8562180493617049e+01 0.0000000000000000e+00 -6.8562180493617049e+01 1.1896338365527882e+01 0.0000000000000000e+00 0.0000000000000000e+00 0.0000000000000000e+00 0.0000000000000000e+00  7.6933294068632762e+01 -1.1478970989533810e+01 0.0000000000000000e+00 -1.1478970989533810e+01 -2.5033514395997663e+01 0.0000000000000000e+00 0.0000000000000000e+00 0.0000000000000000e+00 0.0000000000000000e+00  1.2195368510651298e+02 1.1829940219615002e+01 0.0000000000000000e+00 1.1829940219615002e+01 -8.8248402313992827e+01 0.0000000000000000e+00 0.0000000000000000e+00 0.0000000000000000e+00 0.0000000000000000e+00  9.9548935713484340e+01 -4.1332919193094042e+01 0.0000000000000000e+00 -4.1332919193094042e+01 -5.9315134726620890e+01 0.0000000000000000e+00 0.0000000000000000e+00 0.0000000000000000e+00 0.0000000000000000e+00  4.3914200838934526e+01 -8.9420309447832853e+00 0.0000000000000000e+00 -8.9420309447832853e+00 -2.7716305425535892e+00 0.0000000000000000e+00 0.0000000000000000e+00 0.0000000000000000e+00 0.0000000000000000e+00  1.3038417828225187e+01 6.8802341786504622e+00 0.0000000000000000e+00 6.8802341786504622e+00 2.2444980020092867e+01 0.0000000000000000e+00 0.0000000000000000e+00 0.0000000000000000e+00 0.0000000000000000e+00  -3.0378233573246277e+01 -3.3332566249869686e+01 0.0000000000000000e+00 -3.3332566249869686e+01 6.8970091835103702e+01 0.0000000000000000e+00 0.0000000000000000e+00 0.0000000000000000e+00 0.0000000000000000e+00  -2.4878322088660695e+01 -2.9666123191898215e+01 0.0000000000000000e+00 -2.9666123191898215e+01 7.2984410632249933e+01 0.0000000000000000e+00 0.0000000000000000e+00 0.0000000000000000e+00 0.0000000000000000e+00  4.2537779833874474e+01 -6.2092359963981373e+01 0.0000000000000000e+00 -6.2092359963981373e+01 6.3978102799876853e+00 0.0000000000000000e+00 0.0000000000000000e+00 0.0000000000000000e+00 0.0000000000000000e+00  3.1360167472673947e+01 -4.2319032918973896e+01 0.0000000000000000e+00 -4.2319032918973896e+01 -1.0581280990646409e+01 0.0000000000000000e+00 0.0000000000000000e+00 0.0000000000000000e+00 0.0000000000000000e+00  8.9135929603149066e+01 1.2530282830884817e+01 0.0000000000000000e+00 1.2530282830884817e+01 -5.5772409797657517e+01 0.0000000000000000e+00 0.0000000000000000e+00 0.0000000000000000e+00 0.0000000000000000e+00  1.1221304689025351e+02 -6.2386214385787476e+01 0.0000000000000000e+00 -6.2386214385787476e+01 -6.5031695127480845e+01 0.0000000000000000e+00 0.0000000000000000e+00 0.0000000000000000e+00 0.0000000000000000e+00  2.4281124519478144e+01 1.1348524730072462e+00 0.0000000000000000e+00 1.1348524730072462e+00 1.7448684901220005e+01 0.0000000000000000e+00 0.0000000000000000e+00 0.0000000000000000e+00 0.0000000000000000e+00  1.6525704183528724e+01 4.7678242165430200e+00 0.0000000000000000e+00 4.7678242165430200e+00 2.2894613989391846e+01 0.0000000000000000e+00 0.0000000000000000e+00 0.0000000000000000e+00 0.0000000000000000e+00  6.4531407813892079e+00 -1.5774681546934723e+01 0.0000000000000000e+00 -1.5774681546934723e+01 3.7737127102000308e+01 0.0000000000000000e+00 0.0000000000000000e+00 0.0000000000000000e+00 0.0000000000000000e+00  2.7898576321608541e+01 -2.6583361443800271e+01 0.0000000000000000e+00 -2.6583361443800271e+01 1.5264776620188297e+01 0.0000000000000000e+00 0.0000000000000000e+00 0.0000000000000000e+00 0.0000000000000000e+00  2.2065851653656352e+01 -6.4902609271861735e+01 0.0000000000000000e+00 -6.4902609271861735e+01 2.3845830833348876e+00 0.0000000000000000e+00 0.0000000000000000e+00 0.0000000000000000e+00 0.0000000000000000e+00  5.2207825590621923e+01 -2.7824992466401078e+01 0.0000000000000000e+00 -2.7824992466401078e+01 -8.4863620005897307e+00 0.0000000000000000e+00 0.0000000000000000e+00 0.0000000000000000e+00 0.0000000000000000e+00  9.0952862397522850e+01 -1.5981278110418472e+01 0.0000000000000000e+00 -1.5981278110418472e+01 -5.8740051828233668e+01 0.0000000000000000e+00 0.0000000000000000e+00 0.0000000000000000e+00 0.0000000000000000e+00  5.2986426579022819e+01 7.9857247501892270e-01 0.0000000000000000e+00 7.9857247501892270e-01 -1.8621462576331570e+01 0.0000000000000000e+00 0.0000000000000000e+00 0.0000000000000000e+00 0.0000000000000000e+00  3.1145357190023496e+01 -6.7779202044046976e+00 0.0000000000000000e+00 -6.7779202044046976e+00 1.2751987413189868e+01 0.0000000000000000e+00 0.0000000000000000e+00 0.0000000000000000e+00 0.0000000000000000e+00  7.0489168576269989e+01 2.9427639757187134e+01 0.0000000000000000e+00 2.9427639757187134e+01 -2.9149413972803814e+01 0.0000000000000000e+00 0.0000000000000000e+00 0.0000000000000000e+00 0.0000000000000000e+00  1.0911716789161919e+02 9.3395334362019398e+00 0.0000000000000000e+00 9.3395334362019398e+00 -7.7059506407202633e+01 0.0000000000000000e+00 0.0000000000000000e+00 0.0000000000000000e+00 0.0000000000000000e+00  6.6958223873534834e+01 -1.2905518367258393e+01 0.0000000000000000e+00 -1.2905518367258393e+01 -3.5903623869505417e+01 0.0000000000000000e+00 0.0000000000000000e+00 0.0000000000000000e+00 0.0000000000000000e+00  2.6017699983373291e+01 5.2442109309823849e+01 0.0000000000000000e+00 5.2442109309823849e+01 3.0351884526896451e+00 0.0000000000000000e+00 0.0000000000000000e+00 0.0000000000000000e+00 0.0000000000000000e+00  -1.7107498323400346e+01 1.1588656885154130e+01 0.0000000000000000e+00 1.1588656885154130e+01 5.6515590463544328e+01 0.0000000000000000e+00 0.0000000000000000e+00 0.0000000000000000e+00 0.0000000000000000e+00  -4.5136057801167532e+01 6.0884638509537027e+01 0.0000000000000000e+00 6.0884638509537027e+01 7.0267387612006601e+01 0.0000000000000000e+00 0.0000000000000000e+00 0.0000000000000000e+00 0.0000000000000000e+00  1.7636399223389290e+00 -1.2342487233423427e+01 0.0000000000000000e+00 -1.2342487233423427e+01 3.6352589202151897e+01 0.0000000000000000e+00 0.0000000000000000e+00 0.0000000000000000e+00 0.0000000000000000e+00  5.0625431647138655e+01 -2.0803604240328850e+00 0.0000000000000000e+00 -2.0803604240328850e+00 -2.2199317252187097e+01 0.0000000000000000e+00 0.0000000000000000e+00 0.0000000000000000e+00 0.0000000000000000e+00  1.0467349458696197e+02 2.8748753398874690e+01 0.0000000000000000e+00 2.8748753398874690e+01 -8.2929934523198312e+01 0.0000000000000000e+00 0.0000000000000000e+00 0.0000000000000000e+00 0.0000000000000000e+00  9.7504278234992853e+01 -4.0884125741150903e+01 0.0000000000000000e+00 -4.0884125741150903e+01 -9.0088925866148401e+01 0.0000000000000000e+00 0.0000000000000000e+00 0.0000000000000000e+00 0.0000000000000000e+00  1.4767690824886960e+01 -1.5642441383129364e+01 0.0000000000000000e+00 -1.5642441383129364e+01 6.4548666219241744e+00 0.0000000000000000e+00 0.0000000000000000e+00 0.0000000000000000e+00 0.0000000000000000e+00  -4.1025674247460110e+01 -1.8266136037967836e+01 0.0000000000000000e+00 -1.8266136037967836e+01 7.0149121951906963e+01 0.0000000000000000e+00 0.0000000000000000e+00 0.0000000000000000e+00 0.0000000000000000e+00  -9.7963630740634414e+01 9.8232044230537596e+01 0.0000000000000000e+00 9.8232044230537596e+01 1.1888496172660113e+02 0.0000000000000000e+00 0.0000000000000000e+00 0.0000000000000000e+00 0.0000000000000000e+00  -9.7188925580914987e+00 -1.7279969098821145e+01 0.0000000000000000e+00 -1.7279969098821145e+01 1.0916733177183067e+01 0.0000000000000000e+00 0.0000000000000000e+00 0.0000000000000000e+00 0.0000000000000000e+00  -1.2343834589857627e+02 1.2711213782078930e+02 0.0000000000000000e+00 1.2711213782078930e+02 -4.2594863951744465e+01 0.0000000000000000e+00 0.0000000000000000e+00 0.0000000000000000e+00 0.0000000000000000e+00  3.6625653526023615e+02 2.2324273680951188e+02 0.0000000000000000e+00 2.2324273680951188e+02 8.7236938323636124e+01 0.0000000000000000e+00 0.0000000000000000e+00 0.0000000000000000e+00 0.0000000000000000e+00  9.4154125363013836e+00 1.0086342596954586e+02 0.0000000000000000e+00 1.0086342596954586e+02 9.1902273236774121e+00 0.0000000000000000e+00 0.0000000000000000e+00 0.0000000000000000e+00 0.0000000000000000e+00  4.4915573201907728e+00 6.2641799532014470e+00 0.0000000000000000e+00 6.2641799532014470e+00 -2.3183859552534678e+01 0.0000000000000000e+00 0.0000000000000000e+00 0.0000000000000000e+00 0.0000000000000000e+00  2.0038354591513336e+01 1.0423886763852212e+02 0.0000000000000000e+00 1.0423886763852212e+02 1.6982161703812395e+01 0.0000000000000000e+00 0.0000000000000000e+00 0.0000000000000000e+00 0.0000000000000000e+00  1.9304281983299003e+01 1.0370378394581039e+02 0.0000000000000000e+00 1.0370378394581039e+02 2.9149338821716885e+01 0.0000000000000000e+00 0.0000000000000000e+00 0.0000000000000000e+00 0.0000000000000000e+00  -4.0374908857807775e+01 1.1622144689529099e+01 0.0000000000000000e+00 1.1622144689529099e+01 2.2565284739301415e+01 0.0000000000000000e+00 0.0000000000000000e+00 0.0000000000000000e+00 0.0000000000000000e+00  -2.7676789415934152e+01 -1.8420887983067157e+01 0.0000000000000000e+00 -1.8420887983067157e+01 1.1286805653482185e+01 0.0000000000000000e+00 0.0000000000000000e+00 0.0000000000000000e+00 0.0000000000000000e+00  -5.9300770770492113e+00 -2.0646806882207395e+02 0.0000000000000000e+00 -2.0646806882207395e+02 -5.2860371567699325e+00 0.0000000000000000e+00 0.0000000000000000e+00 0.0000000000000000e+00 0.0000000000000000e+00  1.9216153948310237e+00 -1.2999292449842104e+00 0.0000000000000000e+00 -1.2999292449842104e+00 1.7651896444381103e+00 0.0000000000000000e+00 0.0000000000000000e+00 0.0000000000000000e+00 0.0000000000000000e+00  6.0742066726006207e+00 -1.9707005306156919e+01 0.0000000000000000e+00 -1.9707005306156919e+01 6.0648404899688284e+00 0.0000000000000000e+00 0.0000000000000000e+00 0.0000000000000000e+00 0.0000000000000000e+00  2.2246617921974612e+00 3.0055889176007669e+00 0.0000000000000000e+00 3.0055889176007669e+00 2.4446543136516028e+00 0.0000000000000000e+00 0.0000000000000000e+00 0.0000000000000000e+00 0.0000000000000000e+00  8.1295269583084675e+00 -2.3967735799921968e+01 0.0000000000000000e+00 -2.3967735799921968e+01 8.1592175360554702e+00 0.0000000000000000e+00 0.0000000000000000e+00 0.0000000000000000e+00 0.0000000000000000e+00  -7.8695344604589579e+00 1.0878964979622656e+02 0.0000000000000000e+00 1.0878964979622656e+02 -3.3335034854764825e+00 0.0000000000000000e+00 0.0000000000000000e+00 0.0000000000000000e+00 0.0000000000000000e+00  -2.3408181647393775e+02 -3.3362600204405430e+02 0.0000000000000000e+00 -3.3362600204405430e+02 -1.2023292018745650e+01 0.0000000000000000e+00 0.0000000000000000e+00 0.0000000000000000e+00 0.0000000000000000e+00  -1.5340763315228156e+01 -9.2232207117165117e+01 0.0000000000000000e+00 -9.2232207117165117e+01 -5.7950465761204004e+00 0.0000000000000000e+00 0.0000000000000000e+00 0.0000000000000000e+00 0.0000000000000000e+00  -2.6608155990502316e+00 2.5144056816284522e+01 0.0000000000000000e+00 2.5144056816284522e+01 -2.3657059421654374e+00 0.0000000000000000e+00 0.0000000000000000e+00 0.0000000000000000e+00 0.0000000000000000e+00  -7.5170322834690317e+00 5.1364898201558297e+01 0.0000000000000000e+00 5.1364898201558297e+01 -2.4210065392418434e+00 0.0000000000000000e+00 0.0000000000000000e+00 0.0000000000000000e+00 0.0000000000000000e+00  -2.3508840907953590e+00 1.0073653371707705e+02 0.0000000000000000e+00 1.0073653371707705e+02 -9.5009449793621983e-02 0.0000000000000000e+00 0.0000000000000000e+00 0.0000000000000000e+00 0.0000000000000000e+00  -3.7373230519347684e+00 -1.5094408062380467e+01 0.0000000000000000e+00 -1.5094408062380467e+01 -6.2419728076272989e+00 0.0000000000000000e+00 0.0000000000000000e+00 0.0000000000000000e+00 0.0000000000000000e+00  1.5001394356906806e+01 -1.7820996249691355e+01 0.0000000000000000e+00 -1.7820996249691355e+01 1.4704951351977206e+01 0.0000000000000000e+00 0.0000000000000000e+00 0.0000000000000000e+00 0.0000000000000000e+00  -3.0870016978696486e+00 -1.8281741253211898e+01 0.0000000000000000e+00 -1.8281741253211898e+01 -3.2994018252458295e+00 0.0000000000000000e+00 0.0000000000000000e+00 0.0000000000000000e+00 0.0000000000000000e+00  -1.8033043891284734e+01 -1.0826168097109421e+02 0.0000000000000000e+00 -1.0826168097109421e+02 -1.3535282122402903e+01 0.0000000000000000e+00 0.0000000000000000e+00 0.0000000000000000e+00 0.0000000000000000e+00  -5.2366372872015510e-01 -1.7148854167420172e+01 0.0000000000000000e+00 -1.7148854167420172e+01 -6.0591028836688077e-01 0.0000000000000000e+00 0.0000000000000000e+00 0.0000000000000000e+00 0.0000000000000000e+00  8.2418501358828795e+00 2.4051290593372993e+01 0.0000000000000000e+00 2.4051290593372993e+01 8.6737227318582164e+00 0.0000000000000000e+00 0.0000000000000000e+00 0.0000000000000000e+00 0.0000000000000000e+00  1.1025083561095546e+02 -1.0936210103318774e+02 0.0000000000000000e+00 -1.0936210103318774e+02 3.9222962692498720e+00 0.0000000000000000e+00 0.0000000000000000e+00 0.0000000000000000e+00 0.0000000000000000e+00  1.0168002323436651e+01 -1.6688430500496615e+01 0.0000000000000000e+00 -1.6688430500496615e+01 1.0581722629128457e+01 0.0000000000000000e+00 0.0000000000000000e+00 0.0000000000000000e+00 0.0000000000000000e+00  1.3097165617266755e+01 -8.6168317967601116e+00 0.0000000000000000e+00 -8.6168317967601116e+00 1.3301084166507604e+01 0.0000000000000000e+00 0.0000000000000000e+00 0.0000000000000000e+00 0.0000000000000000e+00  -1.2686913542868956e+00 -1.5901809260825370e+01 0.0000000000000000e+00 -1.5901809260825370e+01 -1.5481232978236568e+00 0.0000000000000000e+00 0.0000000000000000e+00 0.0000000000000000e+00 0.0000000000000000e+00  1.8265446008577799e+00 -5.2195961675702485e+00 0.0000000000000000e+00 -5.2195961675702476e+00 3.2451478928708477e+00 0.0000000000000000e+00 0.0000000000000000e+00 0.0000000000000000e+00 0.0000000000000000e+00  -5.8047848310437153e+00 2.1378086265356394e+01 0.0000000000000000e+00 2.1378086265356394e+01 -6.3022463752290108e+00 0.0000000000000000e+00 0.0000000000000000e+00 0.0000000000000000e+00 0.0000000000000000e+00  -2.3998818106150610e-01 5.6513726733553034e+00 0.0000000000000000e+00 5.6513726733553034e+00 -1.5142496499894520e+00 0.0000000000000000e+00 0.0000000000000000e+00 0.0000000000000000e+00 0.0000000000000000e+00  1.5745367375542880e+01 -1.9916727213827414e+01 0.0000000000000000e+00 -1.9916727213827414e+01 1.6051341829085871e+01 0.0000000000000000e+00 0.0000000000000000e+00 0.0000000000000000e+00 0.0000000000000000e+00  -7.1651787924356061e+00 1.8200530684671303e+01 0.0000000000000000e+00 1.8200530684671303e+01 -9.3139479845975988e+00 0.0000000000000000e+00 0.0000000000000000e+00 0.0000000000000000e+00 0.0000000000000000e+00  5.2113954543452916e+00 -2.0673141147122870e+01 0.0000000000000000e+00 -2.0673141147122870e+01 8.9428803910786705e+00 0.0000000000000000e+00 0.0000000000000000e+00 0.0000000000000000e+00 0.0000000000000000e+00  7.5352319870265090e+00 -8.1545811445573193e+00 0.0000000000000000e+00 -8.1545811445573193e+00 7.3679666461334277e+00 0.0000000000000000e+00 0.0000000000000000e+00 0.0000000000000000e+00 0.0000000000000000e+00  4.0508730731327720e+00 -1.5076961150852695e+01 0.0000000000000000e+00 -1.5076961150852695e+01 4.0378133351952332e+00 0.0000000000000000e+00 0.0000000000000000e+00 0.0000000000000000e+00 0.0000000000000000e+00  4.2761000512895606e+00 -1.0508033893587189e+01 0.0000000000000000e+00 -1.0508033893587189e+01 4.1743886988340364e+00 0.0000000000000000e+00 0.0000000000000000e+00 0.0000000000000000e+00 0.0000000000000000e+00  -2.5071884172615957e+00 -2.8209411077425242e+00 0.0000000000000000e+00 -2.8209411077425246e+00 -6.1763782351489356e+00 0.0000000000000000e+00 0.0000000000000000e+