<?xml version="1.0"?>
<VTKFile type="UnstructuredGrid"  version="0.1"  >
<UnstructuredGrid>
<Piece  NumberOfPoints="5089" NumberOfCells="9865">
<Points>
<DataArray  type="Float64"  NumberOfComponents="3"  format="ascii">0 1.5 0  0 0 0  0.1029058182573948 0 0  0.1029058182573948 0.02393156642875577 0  0.1251489251828899 0.06631226582407952 0  0.1645395112957465 0.09350162426854149 0  0.2120536680255323 0.0992708874098054 0  0.2568064746731156 0.08229838658936564 0  0.288545602565321 0.04647231720437685 0  0.3 0 0  0.51 0 0  0.5220577136594005 0.04499999999999999 0  0.555 0.07794228634059948 0  0.6 0.09 0  0.645 0.07794228634059946 0  0.6779422863405995 0.04499999999999999 0  0.6899999999999999 0 0  0.8924037639192813 0 0  0.8924037639192813 0.02287028598995353 0  0.9110081306187559 0.06465637775217206 0  0.9450000000000001 0.09526279441628825 0  0.9885018690405581 0.1093974084905101 0  1.033991869381244 0.1046162167924669 0  1.073604366699474 0.08174593080251337 0  1.100490000340686 0.04474103073833802 0  1.11 0 0  1.502905818257395 0 0  1.502905818257395 0.02393156642875577 0  1.52514892518289 0.06631226582407952 0  1.564539511295747 0.09350162426854149 0  1.612053668025532 0.0992708874098054 0  1.656806474673116 0.08229838658936564 0  1.688545602565321 0.04647231720437685 0  1.7 0 0  1.82324056211084 0 0  1.82324056211084 0.02253860454731437 0  1.847611141284377 0.06045996594834066 0  1.888614812938137 0.07918571535047463 0  1.933233201040151 0.07277055962836147 0  1.967300282626494 0.0432512653964478 0  1.98 0 0  2.202905818257395 0 0  2.202905818257395 0.02393156642875577 0  2.22514892518289 0.06631226582407952 0  2.264539511295746 0.09350162426854149 0  2.312053668025532 0.0992708874098054 0  2.356806474673115 0.08229838658936564 0  2.388545602565321 0.04647231720437685 0  2.4 0 0  2.51 0 0  2.522057713659401 0.04499999999999999 0  2.555 0.07794228634059948 0  2.6 0.09 0  2.645 0.07794228634059946 0  2.677942286340599 0.04499999999999999 0  2.69 0 0  3 0 0  3 1.5 0  0 0.75 0  1.5 1.5 0  0 0.375 0  0 0.1875 0  0.75 1.5 0  2.25 1.5 0  3 0.75 0  1.803364316093307 0.8194216192460635 0  0.7085714285714286 0.7914285714285714 0  2.396697907928333 0.698796196655595 0  1.26039230397729 0.6323879781298929 0  1.125 1.5 0  3 1.125 0  0.375 1.5 0  1.418284719659703 1.05567510076647 0  2.625 1.5 0  0 1.125 0  2.4375 1.120298797465005 0  0.4140309460188812 0.4815551607069073 0  0.9375 1.133540466589862 0  1.875 1.5 0  0.4143011358073044 1.085698864192695 0  2.042557228405723 0.4764057674039468 0  3 0.375 0  1.615235786026768 0.4839120951620492 0  0.9172436665953028 0.4786128535408891 0  2.136144598898015 0.9367443054342734 0  2.712089662802327 0.5625 0  1.752709466448716 1.168812671476193 0  2.696461986964791 0.9012929362807449 0  1.307422665144653 0.3094324321200764 0  2.0625 1.24476578117044 0  2.446405755792607 0.3860402512509704 0  0.3158723471199726 0.7836709721106835 0  1.018921994797561 0.831404696897531 0  1.521099871135537 0.7571953762650785 0  2.718190509848388 1.189592528269884 0  0.665307193508031 1.225469494285917 0  1.199897701782483 1.230481185797768 0  0.2233959957266646 1.276604004273335 0  0.6649397520368477 0.3607836886074089 0  0 0.5625 0  2.685543358160364 0.3192521589045413 0  1.775621962986754 0.2975552026784072 0  2.025654700292002 0.7195245521041802 0  0.1961827192748887 0.9897295638426992 0  1.25729921569077 0.8746334216075233 0  1.534142212444284 1.264044413891354 0  1.624439414641745 0.9597398592303362 0  2.117668421489377 0.2641528949307972 0  1.945094170902585 1.053880768096555 0  3 0.1875 0  0.6251639682912251 1.002291403912492 0  0.719601375969486 0.5727782913443102 0  0.2313942916225519 0.3335511938861402 0  0.4687668770508729 0.274248243200137 0  0.5143238740412669 0.6811446824633056 0  1.829350286632844 0.5059917594077202 0  1.082379929992235 0.3249418149194327 0  2.540679850598416 1.305492850437689 0  2.282283153018704 1.279796495628565 0  2.355666841619378 0.9154942188580675 0  0.2114722061938988 0.5448236655965607 0  3 1.3125 0  2.8125 1.5 0  2.263750685400308 0.5173381079832993 0  0.4343085727049624 1.296611441170993 0  1.6875 1.5 0  1.016037518489582 1.324553740130353 0  0.846292314151325 0.9469220663180872 0  1.122827752751251 1.035495517001457 0  1.3125 1.5 0  1.306452909128697 0 0  0.8906638629565067 0.6773217378320744 0  1.517175933126145 0.2981487507037606 0  0.7996957920902151 0.2224603600775558 0  1.446370464174038 0.5785990786868803 0  1.689965192988266 0.6625083927402473 0  0.4864273298880485 0.870473805626289 0  3 0.9375 0  2.831315819563651 1.036097903808422 0  1.106384347284952 0.5163011422226527 0  0.5625 1.5 0  0.9375 1.5 0  0.1875 1.5 0  2.0625 1.5 0  3 0.5625 0  0 0.9375 0  0 1.3125 0  2.4375 1.5 0  2.196044825237544 1.113880351688974 0  2.210431846521007 0.695834380790271 0  0.8262236946704767 1.326155809103077 0  2.523003751809735 0.8349453583788917 0  1.882533682486712 1.30904671408086 0  2.845 0 0  2.813607095438526 0.1837681344374856 0  2.298597604800397 0.280431891689246 0  1.972062138207083 0.8834951655964545 0  1.943392101370151 0.2475417334111557 0  2.828663592588797 0.4267055109367558 0  2.803791026183859 0.7364868569598708 0  2.523250359922468 0.5585816735541729 0  2.602935827188279 1.053310414780935 0  1.692458045540587 1.328962813001376 0  1.232271555781778 0.154950218767993 0  1.36985844680238 1.21899526865025 0  1.785321775315372 1.004919979330962 0  2.534633602602767 0.2439507161942105 0  0.7651985499724481 1.092302611968735 0  2.637828969450683 0.71279922663893 0  1.100469689258933 0.6843495375675052 0  1.315800235513153 0.4755545830105288 0  1.405546076805209 0.1782543944119986 0  2.826282129872177 1.326282129872177 0  0.575884497984488 0.4967904868667201 0  0.1516233666565383 0.826056857120972 0  0.3483704262380678 0.6272257636119053 0  1.568331672486121 1.108640197801574 0  1.475101554186818 0.9082985267599337 0  1.868470483419324 0.6670273102604994 0  0.3467545185571825 0.9433646607171683 0  2.15625 1.373787484318285 0  1.41742615593433 1.367603819494743 0  2.854904919456998 0.8828609574219635 0  0.9476741986655126 0.255395459587152 0  1.267450600339273 1.091056105706913 0  0.114311143675241 0.65625 0  0.65625 1.37859278398136 0  2.170651243108527 0.4023187025489676 0  1.21875 1.380886352874642 0  0.3798992233573569 0.1593768045411093 0  0.9831420651531181 0.9956358347774316 0  1.456186685150796 0.4319140716985383 0  2.586721317152155 0.4269308613840649 0  2.863979293145301 1.178604739864835 0  1.658646098314701 0.8045749301224775 0  1.383553643956373 0.7098158224076794 0  0.154006438477797 1.138458423126247 0  2.856044831401163 0.5977865618779903 0  0.553876003596687 1.130313370813194 0  2.680231675041409 1.360526450748891 0  2.486056782242186 0.9722817331473952 0  1.891212003911469 0.3789027676568836 0  0.8138227412155181 0.37102502168449 0  1.064674644221452 1.192903489156071 0  0.6045358160041144 0.2320910326486189 0  1.194008126159845 0.4081242368041457 0  2.138311355076408 0.5770795769918613 0  0.134142636330111 0.2313017261983794 0  0.8460209454012837 0.8084258449188535 0  0.1293517554287885 0.4305045409359897 0  0.3205820557512212 1.373790064297892 0  0.2928933613730453 1.155196229839076 0  2.404969940572298 1.358123451328196 0  0.9933877375830629 0.5899302104012978 0  2.090287791367255 0.1211621925433303 0  2.904889173308855 0.28125 0  0.1246766077328953 1.375323392267105 0  2.302041695038792 0.7931069109810627 0  2.389228836127323 0.5648368411465005 0  1.886839219693261 1.174850198523801 0  1.96875 1.5 0  2.005259577028834 1.368575570359887 0  2.58746882374347 1.183267841227943 0  1.646515580921743 0.3486369169127919 0  1.980147904783248 0.5942137934419368 0  2.07740167257538 1.055304717195479 0  1.57300338334685 0.6065157750282059 0  1.59375 1.5 0  1.679678032322464 0.2100937046526968 0  2.252673654577562 0.9960348417811178 0  2.17832845930892 0.8178435559778986 0  1.78125 1.5 0  2.021596890434516 0.349571947542988 0  1.79926971381977 0.1752587163176004 0  0.503878860142697 0.3943984894172995 0  1.146622573165596 0.8060813049917908 0  3 1.40625 0  2.649807995179342 0.2020005420916801 0  0.3438742656237004 0.2790576170649142 0  1.546875 1.386334759531577 0  3 0.09375 0  1.320989371181643 0.9800954309611291 0  1.270074893254929 0.7536540780084714 0  2.70770359261854 0.4387759707667409 0  0.5606072232931772 1.296106034499297 0  0.7858104720553775 1.211812834033452 0  2.317237622700128 1.09958886094401 0  2.518665098961854 0.68166123334458 0  1.747777558052355 0.4158756118164814 0  1.683029275145126 1.069756268641544 0  0.46875 1.5 0  2.407758410849746 0.2048845882413086 0  2.396684507181482 1.235853070423643 0  1.919569286509587 0.7755948020085885 0  2.290752654053557 0.4002939182457882 0  0.2367853577638227 0.6856443876677092 0  1.644821718344275 1.219632237269969 0  0 1.03125 0  0.5821665354391095 0.7878606619613046 0  0.6422016866915001 0.674771619551397 0  0.2917070890414653 0.4458139506278615 0  0.7912018819596407 0 0  0.1045102716700244 1.249819735557644 0  1.151091219660612 0.9224858968529193 0  2.719174284445647 1.071883664029489 0  0.7216906855953001 0.918545393630683 0  0.2528020696803429 0.8787006417214202 0  1.726437981314609 0.9055659975386789 0  1.466273966174817 1.158744006060248 0  0.500278661176367 0.9948136517426003 0  1.114706325735654 0.2023659607018325 0  1.193213601931895 0.2926984867334158 0  0.9725372994821596 0.3724679154862157 0  2.214714190066689 0.1991474088029779 0  2.411776451427861 0.8179674328277735 0  1.997105232295531 1.153439169094244 0  0.497834479014996 1.390464488336983 0  0.4532232073331143 0.5868543641678674 0  0.4094710929462204 0.7215160819073434 0  0.2730945637736263 0.1927345247561336 0  2.091452909128697 0 0  1.88727127931541 0.9574017932976476 0  0.7331675361580886 0.4562359341911597 0  0.808798696301996 0.1107204599928528 0  2.794056136375906 0.2935548935723623 0  2.172174128810919 1.263645408055929 0  2.266351953173893 1.389929090293708 0  0.9205129738298803 1.252177379624563 0  2.58760749
[...]
<PointData  Tensors="f_1974"> 
<DataArray  type="Float64"  Name="f_1974"  NumberOfComponents="9" format="ascii">2.0335306283523424e+00 -6.4906612830862347e+00 0.0000000000000000e+00 -6.4906612830862347e+00 -1.9306911320079752e+01 0.0000000000000000e+00 0.0000000000000000e+00 0.0000000000000000e+00 0.0000000000000000e+00  1.0643974233795662e+01 -3.6779254806206951e-01 0.0000000000000000e+00 -3.6779254806206951e-01 3.9005940703743548e+01 0.0000000000000000e+00 0.0000000000000000e+00 0.0000000000000000e+00 0.0000000000000000e+00  4.3565370873103760e+01 -9.1233482101902617e+00 0.0000000000000000e+00 -9.1233482101902617e+00 1.4080555128962290e+01 0.0000000000000000e+00 0.0000000000000000e+00 0.0000000000000000e+00 0.0000000000000000e+00  6.6863079194744728e+01 2.8641094218579234e+01 0.0000000000000000e+00 2.8641094218579234e+01 -1.8812025198527937e+01 0.0000000000000000e+00 0.0000000000000000e+00 0.0000000000000000e+00 0.0000000000000000e+00  1.9084675445628866e+02 -1.0715222961566589e+01 0.0000000000000000e+00 -1.0715222961566589e+01 -1.4993519996526965e+02 0.0000000000000000e+00 0.0000000000000000e+00 0.0000000000000000e+00 0.0000000000000000e+00  1.0227738574750477e+02 1.2452690874389402e+01 0.0000000000000000e+00 1.2452690874389402e+01 -3.6621400350346697e+01 0.0000000000000000e+00 0.0000000000000000e+00 0.0000000000000000e+00 0.0000000000000000e+00  4.1136328582787790e+01 1.7458349118707469e+02 0.0000000000000000e+00 1.7458349118707469e+02 -6.7000414445279475e+00 0.0000000000000000e+00 0.0000000000000000e+00 0.0000000000000000e+00 0.0000000000000000e+00  3.0422606460423868e+01 2.1793226810953197e+01 0.0000000000000000e+00 2.1793226810953197e+01 2.8291668432300813e+01 0.0000000000000000e+00 0.0000000000000000e+00 0.0000000000000000e+00 0.0000000000000000e+00  -6.5040229880056472e+01 9.8008972921532859e+01 0.0000000000000000e+00 9.8008972921532859e+01 1.3230008041873526e+02 0.0000000000000000e+00 0.0000000000000000e+00 0.0000000000000000e+00 0.0000000000000000e+00  1.1002207196675345e+01 3.1750910484724448e+00 0.0000000000000000e+00 3.1750910484724448e+00 5.4669303015170932e+01 0.0000000000000000e+00 0.0000000000000000e+00 0.0000000000000000e+00 0.0000000000000000e+00  2.7386747232352286e+00 -1.6377950008378999e+01 0.0000000000000000e+00 -1.6377950008378999e+01 6.1519768531761706e+01 0.0000000000000000e+00 0.0000000000000000e+00 0.0000000000000000e+00 0.0000000000000000e+00  -7.8551321262720151e+01 -1.7969461564118046e+01 0.0000000000000000e+00 -1.7969461564118046e+01 1.1440678977545522e+02 0.0000000000000000e+00 0.0000000000000000e+00 0.0000000000000000e+00 0.0000000000000000e+00  -1.6765213209634879e+02 3.2765448533021001e+01 0.0000000000000000e+00 3.2765448533021001e+01 1.8706228650575639e+02 0.0000000000000000e+00 0.0000000000000000e+00 0.0000000000000000e+00 0.0000000000000000e+00  -2.9758669281192777e+01 1.0626421736406815e+01 0.0000000000000000e+00 1.0626421736406815e+01 8.9987753616805591e+01 0.0000000000000000e+00 0.0000000000000000e+00 0.0000000000000000e+00 0.0000000000000000e+00  -1.3721873419509285e+02 -2.4917075120836000e+01 0.0000000000000000e+00 -2.4917075120836003e+01 1.6163177198032622e+02 0.0000000000000000e+00 0.0000000000000000e+00 0.0000000000000000e+00 0.0000000000000000e+00  -5.6228228893192785e+01 1.7683448545801401e+01 0.0000000000000000e+00 1.7683448545801401e+01 9.6276480486837670e+01 0.0000000000000000e+00 0.0000000000000000e+00 0.0000000000000000e+00 0.0000000000000000e+00  -7.1043918412088125e+00 1.3030035275726187e+01 0.0000000000000000e+00 1.3030035275726187e+01 5.8125307497193795e+01 0.0000000000000000e+00 0.0000000000000000e+00 0.0000000000000000e+00 0.0000000000000000e+00  -6.4464399223904136e+00 4.8502978065114979e+00 0.0000000000000000e+00 4.8502978065114979e+00 3.8133912644887495e+01 0.0000000000000000e+00 0.0000000000000000e+00 0.0000000000000000e+00 0.0000000000000000e+00  -7.1825838880112045e+01 -5.9533727988182250e+01 0.0000000000000000e+00 -5.9533727988182250e+01 1.3056498014475955e+02 0.0000000000000000e+00 0.0000000000000000e+00 0.0000000000000000e+00 0.0000000000000000e+00  -1.2653428552606267e+02 -1.4002909507826308e+02 0.0000000000000000e+00 -1.4002909507826308e+02 1.6001341211159379e+02 0.0000000000000000e+00 0.0000000000000000e+00 0.0000000000000000e+00 0.0000000000000000e+00  1.7948431718179785e+00 -2.3970614364113217e+01 0.0000000000000000e+00 -2.3970614364113217e+01 3.1432420470067601e+01 0.0000000000000000e+00 0.0000000000000000e+00 0.0000000000000000e+00 0.0000000000000000e+00  1.8073443943163849e+01 -1.1970457219713647e+02 0.0000000000000000e+00 -1.1970457219713647e+02 1.6558602434780614e+01 0.0000000000000000e+00 0.0000000000000000e+00 0.0000000000000000e+00 0.0000000000000000e+00  1.0297906058932128e+02 -1.7470599524490737e+01 0.0000000000000000e+00 -1.7470599524490737e+01 -4.7600970024167331e+01 0.0000000000000000e+00 0.0000000000000000e+00 0.0000000000000000e+00 0.0000000000000000e+00  1.7710846459077274e+02 4.2984046693538659e+01 0.0000000000000000e+00 4.2984046693538659e+01 -1.6556181874650727e+02 0.0000000000000000e+00 0.0000000000000000e+00 0.0000000000000000e+00 0.0000000000000000e+00  9.9188521387200623e+01 -3.1752494006411737e+01 0.0000000000000000e+00 -3.1752494006411737e+01 -6.5671280882743091e+01 0.0000000000000000e+00 0.0000000000000000e+00 0.0000000000000000e+00 0.0000000000000000e+00  3.1227504218949406e+01 1.2901346094003857e+01 0.0000000000000000e+00 1.2901346094003857e+01 1.3228510063246986e+01 0.0000000000000000e+00 0.0000000000000000e+00 0.0000000000000000e+00 0.0000000000000000e+00  -4.5537548718949807e+00 8.2473621903705379e+00 0.0000000000000000e+00 8.2473621903705379e+00 2.7744579894612563e+01 0.0000000000000000e+00 0.0000000000000000e+00 0.0000000000000000e+00 0.0000000000000000e+00  -7.8082684537729847e+01 -4.7476152661885536e+01 0.0000000000000000e+00 -4.7476152661885536e+01 1.1229733150096065e+02 0.0000000000000000e+00 0.0000000000000000e+00 0.0000000000000000e+00 0.0000000000000000e+00  -7.3722594594811127e+01 -6.8074451441776972e+01 0.0000000000000000e+00 -6.8074451441776972e+01 1.2768523440391917e+02 0.0000000000000000e+00 0.0000000000000000e+00 0.0000000000000000e+00 0.0000000000000000e+00  3.5469040824463299e+01 -8.0600229280399176e+01 0.0000000000000000e+00 -8.0600229280399176e+01 9.2919701109234012e+00 0.0000000000000000e+00 0.0000000000000000e+00 0.0000000000000000e+00 0.0000000000000000e+00  3.1906909415388473e+01 -7.8114756263784571e+01 0.0000000000000000e+00 -7.8114756263784571e+01 -2.3397929924671942e+01 0.0000000000000000e+00 0.0000000000000000e+00 0.0000000000000000e+00 0.0000000000000000e+00  1.3517350925795651e+02 3.6891159559369534e+01 0.0000000000000000e+00 3.6891159559369534e+01 -1.1410760479867561e+02 0.0000000000000000e+00 0.0000000000000000e+00 0.0000000000000000e+00 0.0000000000000000e+00  1.5241235340212552e+02 -7.4468925480455553e+01 0.0000000000000000e+00 -7.4468925480455553e+01 -7.8658902906779460e+01 0.0000000000000000e+00 0.0000000000000000e+00 0.0000000000000000e+00 0.0000000000000000e+00  2.8315238943954292e+01 1.0104931011511471e+01 0.0000000000000000e+00 1.0104931011511471e+01 1.1906210481464418e+01 0.0000000000000000e+00 0.0000000000000000e+00 0.0000000000000000e+00 0.0000000000000000e+00  2.8135090214790055e+00 9.4893133764190782e+00 0.0000000000000000e+00 9.4893133764190782e+00 2.2763961214468452e+01 0.0000000000000000e+00 0.0000000000000000e+00 0.0000000000000000e+00 0.0000000000000000e+00  -2.0656348125516566e+01 -2.5028088550379806e+01 0.0000000000000000e+00 -2.5028088550379806e+01 5.9759673207397825e+01 0.0000000000000000e+00 0.0000000000000000e+00 0.0000000000000000e+00 0.0000000000000000e+00  1.1531381168929883e+01 -3.5097786835647085e+01 0.0000000000000000e+00 -3.5097786835647085e+01 3.2270289234081709e+01 0.0000000000000000e+00 0.0000000000000000e+00 0.0000000000000000e+00 0.0000000000000000e+00  -7.9597275318607619e-01 -1.1077750571779836e+02 0.0000000000000000e+00 -1.1077750571779836e+02 1.0556755585212962e+01 0.0000000000000000e+00 0.0000000000000000e+00 0.0000000000000000e+00 0.0000000000000000e+00  8.3780772547730379e+01 -2.9512638317593140e+01 0.0000000000000000e+00 -2.9512638317593140e+01 -3.4935925164567649e+01 0.0000000000000000e+00 0.0000000000000000e+00 0.0000000000000000e+00 0.0000000000000000e+00  1.3473975463739421e+02 -6.0491180845808359e-02 0.0000000000000000e+00 -6.0491180845808387e-02 -1.0620129398595417e+02 0.0000000000000000e+00 0.0000000000000000e+00 0.0000000000000000e+00 0.0000000000000000e+00  3.5848443156905738e+01 3.8162473018278198e+00 0.0000000000000000e+00 3.8162473018278198e+00 -1.3915233196498900e+01 0.0000000000000000e+00 0.0000000000000000e+00 0.0000000000000000e+00 0.0000000000000000e+00  3.0243725371567844e+01 -1.0026847206485913e+01 0.0000000000000000e+00 -1.0026847206485913e+01 9.2468595251731305e+00 0.0000000000000000e+00 0.0000000000000000e+00 0.0000000000000000e+00 0.0000000000000000e+00  5.5019586366972653e+01 2.5710837294364264e+01 0.0000000000000000e+00 2.5710837294364264e+01 -1.0891179252279446e+01 0.0000000000000000e+00 0.0000000000000000e+00 0.0000000000000000e+00 0.0000000000000000e+00  1.6282397556951361e+02 -5.8858901650181465e+00 0.0000000000000000e+00 -5.8858901650181465e+00 -1.3379531462289722e+02 0.0000000000000000e+00 0.0000000000000000e+00 0.0000000000000000e+00 0.0000000000000000e+00  7.1821809526560116e+01 -3.6496358765386669e+00 0.0000000000000000e+00 -3.6496358765386669e+00 -4.4591799332962097e+01 0.0000000000000000e+00 0.0000000000000000e+00 0.0000000000000000e+00 0.0000000000000000e+00  1.0711189239989908e+01 6.7434626626933195e+01 0.0000000000000000e+00 6.7434626626933195e+01 8.9338700372549624e+00 0.0000000000000000e+00 0.0000000000000000e+00 0.0000000000000000e+00 0.0000000000000000e+00  -5.7884546626619979e+01 -8.0398832632197614e-01 0.0000000000000000e+00 -8.0398832632197614e-01 9.8257310167152937e+01 0.0000000000000000e+00 0.0000000000000000e+00 0.0000000000000000e+00 0.0000000000000000e+00  -1.1835418736979828e+02 1.3119841469105123e+02 0.0000000000000000e+00 1.3119841469105123e+02 1.3472312131098792e+02 0.0000000000000000e+00 0.0000000000000000e+00 0.0000000000000000e+00 0.0000000000000000e+00  4.0420621529185512e+00 -9.6975851354376239e+00 0.0000000000000000e+00 -9.6975851354376239e+00 5.2897128578373213e+01 0.0000000000000000e+00 0.0000000000000000e+00 0.0000000000000000e+00 0.0000000000000000e+00  1.1866855604110526e+01 -6.7998689413401907e+00 0.0000000000000000e+00 -6.7998689413401907e+00 -2.2394767868011468e-02 0.0000000000000000e+00 0.0000000000000000e+00 0.0000000000000000e+00 0.0000000000000000e+00  1.1113271027917365e+02 1.1957032332177389e+01 0.0000000000000000e+00 1.1957032332177389e+01 -8.5513330672160834e+01 0.0000000000000000e+00 0.0000000000000000e+00 0.0000000000000000e+00 0.0000000000000000e+00  9.2671852114798796e+01 -2.3572202084837741e+01 0.0000000000000000e+00 -2.3572202084837741e+01 -8.1750103998571390e+01 0.0000000000000000e+00 0.0000000000000000e+00 0.0000000000000000e+00 0.0000000000000000e+00  9.5778314886433442e+00 2.7341711611164126e+00 0.0000000000000000e+00 2.7341711611164126e+00 1.8554598585793421e+01 0.0000000000000000e+00 0.0000000000000000e+00 0.0000000000000000e+00 0.0000000000000000e+00  -1.1476404724242865e+02 -1.9131465893006268e+01 0.0000000000000000e+00 -1.9131465893006268e+01 1.6283204357408445e+02 0.0000000000000000e+00 0.0000000000000000e+00 0.0000000000000000e+00 0.0000000000000000e+00  -2.1287829555528762e+02 1.5910257715638670e+02 0.0000000000000000e+00 1.5910257715638670e+02 2.3073220230012871e+02 0.0000000000000000e+00 0.0000000000000000e+00 0.0000000000000000e+00 0.0000000000000000e+00  -3.7931426809288227e+00 -1.1032119173994410e+01 0.0000000000000000e+00 -1.1032119173994410e+01 -2.4932742415521130e+01 0.0000000000000000e+00 0.0000000000000000e+00 0.0000000000000000e+00 0.0000000000000000e+00  -1.3913541605634649e+02 1.8294063460639825e+02 0.0000000000000000e+00 1.8294063460639825e+02 -1.8153049735454238e+02 0.0000000000000000e+00 0.0000000000000000e+00 0.0000000000000000e+00 0.0000000000000000e+00  3.8113291371373242e+02 2.2657785493101358e+02 0.0000000000000000e+00 2.2657785493101358e+02 6.2733774105320265e+01 0.0000000000000000e+00 0.0000000000000000e+00 0.0000000000000000e+00 0.0000000000000000e+00  7.9432785807024144e+00 1.5712676392549170e+02 0.0000000000000000e+00 1.5712676392549170e+02 7.8429174236315440e+00 0.0000000000000000e+00 0.0000000000000000e+00 0.0000000000000000e+00 0.0000000000000000e+00  9.2131303621464138e+00 2.5630670095711157e+00 0.0000000000000000e+00 2.5630670095711157e+00 -1.9459455492466315e+01 0.0000000000000000e+00 0.0000000000000000e+00 0.0000000000000000e+00 0.0000000000000000e+00  1.8826455103302774e+01 1.6819571693208493e+02 0.0000000000000000e+00 1.6819571693208493e+02 1.4989151384375671e+01 0.0000000000000000e+00 0.0000000000000000e+00 0.0000000000000000e+00 0.0000000000000000e+00  2.3743473037328961e+01 1.8210997449364964e+02 0.0000000000000000e+00 1.8210997449364964e+02 2.1650995225057375e+01 0.0000000000000000e+00 0.0000000000000000e+00 0.0000000000000000e+00 0.0000000000000000e+00  -3.3070337502183726e+01 2.1234308746218730e+01 0.0000000000000000e+00 2.1234308746218730e+01 2.6151184763178414e+01 0.0000000000000000e+00 0.0000000000000000e+00 0.0000000000000000e+00 0.0000000000000000e+00  -1.1299172572210407e+01 -2.1637771942373458e+01 0.0000000000000000e+00 -2.1637771942373458e+01 1.3885317476484836e+01 0.0000000000000000e+00 0.0000000000000000e+00 0.0000000000000000e+00 0.0000000000000000e+00  1.6605400805398290e+01 -2.6826093679732833e+02 0.0000000000000000e+00 -2.6826093679732833e+02 -7.3868690652181508e+00 0.0000000000000000e+00 0.0000000000000000e+00 0.0000000000000000e+00 0.0000000000000000e+00  6.9159221931539949e-01 -2.1774916742241506e+00 0.0000000000000000e+00 -2.1774916742241506e+00 5.9104863462768642e-01 0.0000000000000000e+00 0.0000000000000000e+00 0.0000000000000000e+00 0.0000000000000000e+00  5.6422107426560464e+00 -4.0250330492844085e+01 0.0000000000000000e+00 -4.0250330492844085e+01 4.1040654346629939e+00 0.0000000000000000e+00 0.0000000000000000e+00 0.0000000000000000e+00 0.0000000000000000e+00  9.0128295707357575e-01 4.2703278164963425e+00 0.0000000000000000e+00 4.2703278164963416e+00 1.6346646975198242e+00 0.0000000000000000e+00 0.0000000000000000e+00 0.0000000000000000e+00 0.0000000000000000e+00  7.1779596964137236e+00 -4.8521603989357658e+01 0.0000000000000000e+00 -4.8521603989357658e+01 6.6729062905315288e+00 0.0000000000000000e+00 0.0000000000000000e+00 0.0000000000000000e+00 0.0000000000000000e+00  -1.9448153872278208e+01 1.7502460038103462e+02 0.0000000000000000e+00 1.7502460038103462e+02 5.7529981126414205e+00 0.0000000000000000e+00 0.0000000000000000e+00 0.0000000000000000e+00 0.0000000000000000e+00  -6.3807827640303185e+02 -7.4857540193421301e+02 0.0000000000000000e+00 -7.4857540193421301e+02 -6.9599403143868727e+01 0.0000000000000000e+00 0.0000000000000000e+00 0.0000000000000000e+00 0.0000000000000000e+00  -1.4143128570592285e+01 -1.3272871473073667e+02 0.0000000000000000e+00 -1.3272871473073667e+02 6.3271100501750164e+00 0.0000000000000000e+00 0.0000000000000000e+00 0.0000000000000000e+00 0.0000000000000000e+00  -4.8955391603408724e+00 5.1287749323285077e+01 0.0000000000000000e+00 5.1287749323285077e+01 -2.1426798996726983e+00 0.0000000000000000e+00 0.0000000000000000e+00 0.0000000000000000e+00 0.0000000000000000e+00  -2.4058887865419397e+01 6.6251032149851255e+01 0.0000000000000000e+00 6.6251032149851255e+01 1.2399179564409437e+01 0.0000000000000000e+00 0.0000000000000000e+00 0.0000000000000000e+00 0.0000000000000000e+00  -4.4208819549525478e+00 1.5304279896304689e+02 0.0000000000000000e+00 1.5304279896304689e+02 -2.1878352530105265e+00 0.0000000000000000e+00 0.0000000000000000e+00 0.0000000000000000e+00 0.0000000000000000e+00  -5.3973641486795305e+00 -2.0711777645163263e+01 0.0000000000000000e+00 -2.0711777645163252e+01 -6.8815297939935656e+00 0.0000000000000000e+00 0.0000000000000000e+00 0.0000000000000000e+00 0.0000000000000000e+00  1.4685036882567836e+01 -3.8230380278147400e+01 0.0000000000000000e+00 -3.8230380278147400e+01 1.2465015199174173e+01 0.0000000000000000e+00 0.0000000000000000e+00 0.0000000000000000e+00 0.0000000000000000e+00  -3.3468334812811693e+00 -3.8916137184260208e+01 0.0000000000000000e+00 -3.8916137184260208e+01 -5.4513266280877506e+00 0.0000000000000000e+00 0.0000000000000000e+00 0.0000000000000000e+00 0.0000000000000000e+00  -3.0130777249837404e+01 -1.7852928153319559e+02 0.0000000000000000e+00 -1.7852928153319559e+02 -1.1313274463253999e+01 0.0000000000000000e+00 0.0000000000000000e+00 0.0000000000000000e+00 0.0000000000000000e+00  -1.1163809662558459e+00 -3.3764586633398707e+01 0.0000000000000000e+00 -3.3764586633398707e+01 -2.6084783772154623e+00 0.0000000000000000e+00 0.0000000000000000e+00 0.0000000000000000e+00 0.0000000000000000e+00  7.5386761281803265e+00 4.7832269636678731e+01 0.0000000000000000e+00 4.7832269636678731e+01 6.6986153168784481e+00 0.0000000000000000e+00 0.0000000000000000e+00 0.0000000000000000e+00 0.0000000000000000e+00  1.6787978468930345e+02 -5.2499245670661097e+01 0.0000000000000000e+00 -5.2499245670661097e+01 -1.7765187522576404e+00 0.0000000000000000e+00 0.0000000000000000e+00 0.0000000000000000e+00 0.0000000000000000e+00  8.4599750999447263e+00 -3.3949152003492671e+01 0.0000000000000000e+00 -3.3949152003492671e+01 9.6464171986543192e+00 0.0000000000000000e+00 0.0000000000000000e+00 0.0000000000000000e+00 0.0000000000000000e+00  1.2002292029598960e+01 -1.6121310634156142e+01 0.0000000000000000e+00 -1.6121310634156142e+01 1.1739486709390615e+01 0.0000000000000000e+00 0.0000000000000000e+00 0.0000000000000000e+00 0.0000000000000000e+00  -2.8851524585990487e+00 -2.9875259566498173e+01 0.0000000000000000e+00 -2.9875259566498173e+01 -2.1952210779987822e+00 0.0000000000000000e+00 0.0000000000000000e+00 0.0000000000000000e+00 0.0000000000000000e+00  -4.3702057679164179e+00 -2.2826529883107206e+01 0.0000000000000000e+00 -2.2826529883107217e+01 8.9468282352919779e+00 0.0000000000000000e+00 0.0000000000000000e+00 0.0000000000000000e+00 0.0000000000000000e+00  -7.2633386906920174e+00 4.3438032373581365e+01 0.0000000000000000e+00 4.3438032373581365e+01 -7.2840023989953124e+00 0.0000000000000000e+00 0.0000000000000000e+00 0.0000000000000000e+00 0.0000000000000000e+00  1.5098225398009688e+00 1.9100068874114168e+01 0.0000000000000000e+00 1.9100068874114168e+01 -4.9034663443954001e+00 0.0000000000000000e+00 0.0000000000000000e+00 0.0000000000000000e+00 0.0000000000000000e+00  1.4788520021863249e+01 -4.1891984504000739e+01 0.0000000000000000e+00 -4.1891984504000739e+01 1.4186507081726672e+01 0.0000000000000000e+00 0.0000000000000000e+00 0.0000000000000000e+00 0.0000000000000000e+00  -7.8262165516700968e+00 3.9205454766240599e+01 0.0000000000000000e+00 3.9205454766240599e+01 -1.1409693609336074e+01 0.0000000000000000e+00 0.0000000000000000e+00 0.0000000000000000e+00 0.0000000000000000e+00  -8.3623324321706072e-01 -4.6102084810641010e+01 0.0000000000000000e+00 -4.6102084810641010e+01 1.2711007473349122e+01 0.0000000000000000e+00 0.0000000000000000e+00 0.0000000000000000e+00 0.0000000000000000e+00  6.5831262899393357e+00 -1.5920151641154970e+01 0.0000000000000000e+00 -1.5920151641154970e+01 5.7573698651778065e+00 0.0000000000000000e+00 0.0000000000000000e+00 0.0000000000000000e+00 0.0000000000000000e+00  3.2168930552234474e+00 -3.0631434262523499e+01 0.0000000000000000e+00 -3.0631434262523499e+01 2.2117277381788130e+00 0.0000000000000000e+00 0.0000000000000000e+00 0.0000000000000000e+00 0.0000000000000000e+00  3.1219094553429740e+00 -2.1097154795491527e+01 0.0000000000000000e+00 -2.1097154795491527e+01 2.8551230221837498e+00 0.0000000000000000e+00 0.0000000000000000e+00 0.0000000000000000e+00 0.0000000000000000e+00  7.9080885013696212e-01 1.9047580701037532e+01 0.0000000000000000e+00 1.9047580701037528e+01 -1.1766009160693310e+01 0.0000000000000000e+00 0.0000000000000