<?xml version="1.0"?>
<VTKFile type="UnstructuredGrid"  version="0.1"  >
<UnstructuredGrid>
<Piece  NumberOfPoints="5089" NumberOfCells="9865">
<Points>
<DataArray  type="Float64"  NumberOfComponents="3"  format="ascii">0 1.5 0  0 0 0  0.1029058182573948 0 0  0.1029058182573948 0.02393156642875577 0  0.1251489251828899 0.06631226582407952 0  0.1645395112957465 0.09350162426854149 0  0.2120536680255323 0.0992708874098054 0  0.2568064746731156 0.08229838658936564 0  0.288545602565321 0.04647231720437685 0  0.3 0 0  0.51 0 0  0.5220577136594005 0.04499999999999999 0  0.555 0.07794228634059948 0  0.6 0.09 0  0.645 0.07794228634059946 0  0.6779422863405995 0.04499999999999999 0  0.6899999999999999 0 0  0.8924037639192813 0 0  0.8924037639192813 0.02287028598995353 0  0.9110081306187559 0.06465637775217206 0  0.9450000000000001 0.09526279441628825 0  0.9885018690405581 0.1093974084905101 0  1.033991869381244 0.1046162167924669 0  1.073604366699474 0.08174593080251337 0  1.100490000340686 0.04474103073833802 0  1.11 0 0  1.502905818257395 0 0  1.502905818257395 0.02393156642875577 0  1.52514892518289 0.06631226582407952 0  1.564539511295747 0.09350162426854149 0  1.612053668025532 0.0992708874098054 0  1.656806474673116 0.08229838658936564 0  1.688545602565321 0.04647231720437685 0  1.7 0 0  1.82324056211084 0 0  1.82324056211084 0.02253860454731437 0  1.847611141284377 0.06045996594834066 0  1.888614812938137 0.07918571535047463 0  1.933233201040151 0.07277055962836147 0  1.967300282626494 0.0432512653964478 0  1.98 0 0  2.202905818257395 0 0  2.202905818257395 0.02393156642875577 0  2.22514892518289 0.06631226582407952 0  2.264539511295746 0.09350162426854149 0  2.312053668025532 0.0992708874098054 0  2.356806474673115 0.08229838658936564 0  2.388545602565321 0.04647231720437685 0  2.4 0 0  2.51 0 0  2.522057713659401 0.04499999999999999 0  2.555 0.07794228634059948 0  2.6 0.09 0  2.645 0.07794228634059946 0  2.677942286340599 0.04499999999999999 0  2.69 0 0  3 0 0  3 1.5 0  0 0.75 0  1.5 1.5 0  0 0.375 0  0 0.1875 0  0.75 1.5 0  2.25 1.5 0  3 0.75 0  1.803364316093307 0.8194216192460635 0  0.7085714285714286 0.7914285714285714 0  2.396697907928333 0.698796196655595 0  1.26039230397729 0.6323879781298929 0  1.125 1.5 0  3 1.125 0  0.375 1.5 0  1.418284719659703 1.05567510076647 0  2.625 1.5 0  0 1.125 0  2.4375 1.120298797465005 0  0.4140309460188812 0.4815551607069073 0  0.9375 1.133540466589862 0  1.875 1.5 0  0.4143011358073044 1.085698864192695 0  2.042557228405723 0.4764057674039468 0  3 0.375 0  1.615235786026768 0.4839120951620492 0  0.9172436665953028 0.4786128535408891 0  2.136144598898015 0.9367443054342734 0  2.712089662802327 0.5625 0  1.752709466448716 1.168812671476193 0  2.696461986964791 0.9012929362807449 0  1.307422665144653 0.3094324321200764 0  2.0625 1.24476578117044 0  2.446405755792607 0.3860402512509704 0  0.3158723471199726 0.7836709721106835 0  1.018921994797561 0.831404696897531 0  1.521099871135537 0.7571953762650785 0  2.718190509848388 1.189592528269884 0  0.665307193508031 1.225469494285917 0  1.199897701782483 1.230481185797768 0  0.2233959957266646 1.276604004273335 0  0.6649397520368477 0.3607836886074089 0  0 0.5625 0  2.685543358160364 0.3192521589045413 0  1.775621962986754 0.2975552026784072 0  2.025654700292002 0.7195245521041802 0  0.1961827192748887 0.9897295638426992 0  1.25729921569077 0.8746334216075233 0  1.534142212444284 1.264044413891354 0  1.624439414641745 0.9597398592303362 0  2.117668421489377 0.2641528949307972 0  1.945094170902585 1.053880768096555 0  3 0.1875 0  0.6251639682912251 1.002291403912492 0  0.719601375969486 0.5727782913443102 0  0.2313942916225519 0.3335511938861402 0  0.4687668770508729 0.274248243200137 0  0.5143238740412669 0.6811446824633056 0  1.829350286632844 0.5059917594077202 0  1.082379929992235 0.3249418149194327 0  2.540679850598416 1.305492850437689 0  2.282283153018704 1.279796495628565 0  2.355666841619378 0.9154942188580675 0  0.2114722061938988 0.5448236655965607 0  3 1.3125 0  2.8125 1.5 0  2.263750685400308 0.5173381079832993 0  0.4343085727049624 1.296611441170993 0  1.6875 1.5 0  1.016037518489582 1.324553740130353 0  0.846292314151325 0.9469220663180872 0  1.122827752751251 1.035495517001457 0  1.3125 1.5 0  1.306452909128697 0 0  0.8906638629565067 0.6773217378320744 0  1.517175933126145 0.2981487507037606 0  0.7996957920902151 0.2224603600775558 0  1.446370464174038 0.5785990786868803 0  1.689965192988266 0.6625083927402473 0  0.4864273298880485 0.870473805626289 0  3 0.9375 0  2.831315819563651 1.036097903808422 0  1.106384347284952 0.5163011422226527 0  0.5625 1.5 0  0.9375 1.5 0  0.1875 1.5 0  2.0625 1.5 0  3 0.5625 0  0 0.9375 0  0 1.3125 0  2.4375 1.5 0  2.196044825237544 1.113880351688974 0  2.210431846521007 0.695834380790271 0  0.8262236946704767 1.326155809103077 0  2.523003751809735 0.8349453583788917 0  1.882533682486712 1.30904671408086 0  2.845 0 0  2.813607095438526 0.1837681344374856 0  2.298597604800397 0.280431891689246 0  1.972062138207083 0.8834951655964545 0  1.943392101370151 0.2475417334111557 0  2.828663592588797 0.4267055109367558 0  2.803791026183859 0.7364868569598708 0  2.523250359922468 0.5585816735541729 0  2.602935827188279 1.053310414780935 0  1.692458045540587 1.328962813001376 0  1.232271555781778 0.154950218767993 0  1.36985844680238 1.21899526865025 0  1.785321775315372 1.004919979330962 0  2.534633602602767 0.2439507161942105 0  0.7651985499724481 1.092302611968735 0  2.637828969450683 0.71279922663893 0  1.100469689258933 0.6843495375675052 0  1.315800235513153 0.4755545830105288 0  1.405546076805209 0.1782543944119986 0  2.826282129872177 1.326282129872177 0  0.575884497984488 0.4967904868667201 0  0.1516233666565383 0.826056857120972 0  0.3483704262380678 0.6272257636119053 0  1.568331672486121 1.108640197801574 0  1.475101554186818 0.9082985267599337 0  1.868470483419324 0.6670273102604994 0  0.3467545185571825 0.9433646607171683 0  2.15625 1.373787484318285 0  1.41742615593433 1.367603819494743 0  2.854904919456998 0.8828609574219635 0  0.9476741986655126 0.255395459587152 0  1.267450600339273 1.091056105706913 0  0.114311143675241 0.65625 0  0.65625 1.37859278398136 0  2.170651243108527 0.4023187025489676 0  1.21875 1.380886352874642 0  0.3798992233573569 0.1593768045411093 0  0.9831420651531181 0.9956358347774316 0  1.456186685150796 0.4319140716985383 0  2.586721317152155 0.4269308613840649 0  2.863979293145301 1.178604739864835 0  1.658646098314701 0.8045749301224775 0  1.383553643956373 0.7098158224076794 0  0.154006438477797 1.138458423126247 0  2.856044831401163 0.5977865618779903 0  0.553876003596687 1.130313370813194 0  2.680231675041409 1.360526450748891 0  2.486056782242186 0.9722817331473952 0  1.891212003911469 0.3789027676568836 0  0.8138227412155181 0.37102502168449 0  1.064674644221452 1.192903489156071 0  0.6045358160041144 0.2320910326486189 0  1.194008126159845 0.4081242368041457 0  2.138311355076408 0.5770795769918613 0  0.134142636330111 0.2313017261983794 0  0.8460209454012837 0.8084258449188535 0  0.1293517554287885 0.4305045409359897 0  0.3205820557512212 1.373790064297892 0  0.2928933613730453 1.155196229839076 0  2.404969940572298 1.358123451328196 0  0.9933877375830629 0.5899302104012978 0  2.090287791367255 0.1211621925433303 0  2.904889173308855 0.28125 0  0.1246766077328953 1.375323392267105 0  2.302041695038792 0.7931069109810627 0  2.389228836127323 0.5648368411465005 0  1.886839219693261 1.174850198523801 0  1.96875 1.5 0  2.005259577028834 1.368575570359887 0  2.58746882374347 1.183267841227943 0  1.646515580921743 0.3486369169127919 0  1.980147904783248 0.5942137934419368 0  2.07740167257538 1.055304717195479 0  1.57300338334685 0.6065157750282059 0  1.59375 1.5 0  1.679678032322464 0.2100937046526968 0  2.252673654577562 0.9960348417811178 0  2.17832845930892 0.8178435559778986 0  1.78125 1.5 0  2.021596890434516 0.349571947542988 0  1.79926971381977 0.1752587163176004 0  0.503878860142697 0.3943984894172995 0  1.146622573165596 0.8060813049917908 0  3 1.40625 0  2.649807995179342 0.2020005420916801 0  0.3438742656237004 0.2790576170649142 0  1.546875 1.386334759531577 0  3 0.09375 0  1.320989371181643 0.9800954309611291 0  1.270074893254929 0.7536540780084714 0  2.70770359261854 0.4387759707667409 0  0.5606072232931772 1.296106034499297 0  0.7858104720553775 1.211812834033452 0  2.317237622700128 1.09958886094401 0  2.518665098961854 0.68166123334458 0  1.747777558052355 0.4158756118164814 0  1.683029275145126 1.069756268641544 0  0.46875 1.5 0  2.407758410849746 0.2048845882413086 0  2.396684507181482 1.235853070423643 0  1.919569286509587 0.7755948020085885 0  2.290752654053557 0.4002939182457882 0  0.2367853577638227 0.6856443876677092 0  1.644821718344275 1.219632237269969 0  0 1.03125 0  0.5821665354391095 0.7878606619613046 0  0.6422016866915001 0.674771619551397 0  0.2917070890414653 0.4458139506278615 0  0.7912018819596407 0 0  0.1045102716700244 1.249819735557644 0  1.151091219660612 0.9224858968529193 0  2.719174284445647 1.071883664029489 0  0.7216906855953001 0.918545393630683 0  0.2528020696803429 0.8787006417214202 0  1.726437981314609 0.9055659975386789 0  1.466273966174817 1.158744006060248 0  0.500278661176367 0.9948136517426003 0  1.114706325735654 0.2023659607018325 0  1.193213601931895 0.2926984867334158 0  0.9725372994821596 0.3724679154862157 0  2.214714190066689 0.1991474088029779 0  2.411776451427861 0.8179674328277735 0  1.997105232295531 1.153439169094244 0  0.497834479014996 1.390464488336983 0  0.4532232073331143 0.5868543641678674 0  0.4094710929462204 0.7215160819073434 0  0.2730945637736263 0.1927345247561336 0  2.091452909128697 0 0  1.88727127931541 0.9574017932976476 0  0.7331675361580886 0.4562359341911597 0  0.808798696301996 0.1107204599928528 0  2.794056136375906 0.2935548935723623 0  2.172174128810919 1.263645408055929 0  2.266351953173893 1.389929090293708 0  0.9205129738298803 1.252177379624563 0  2.58760749
[...]
<PointData  Tensors="f_1138"> 
<DataArray  type="Float64"  Name="f_1138"  NumberOfComponents="9" format="ascii">1.2199964694861821e+01 -6.6269035160667977e+00 0.0000000000000000e+00 -6.6269035160667977e+00 -2.3283775293913052e+01 0.0000000000000000e+00 0.0000000000000000e+00 0.0000000000000000e+00 0.0000000000000000e+00  2.0370681384677408e+01 -2.2761447514146727e+00 0.0000000000000000e+00 -2.2761447514146727e+00 3.1568716382849352e+01 0.0000000000000000e+00 0.0000000000000000e+00 0.0000000000000000e+00 0.0000000000000000e+00  4.2305642209471188e+01 -6.5029137289349688e+00 0.0000000000000000e+00 -6.5029137289349688e+00 1.9045043076480596e+01 0.0000000000000000e+00 0.0000000000000000e+00 0.0000000000000000e+00 0.0000000000000000e+00  7.4961448111717871e+01 3.0035451368314593e+01 0.0000000000000000e+00 3.0035451368314593e+01 -2.0222352364081043e+01 0.0000000000000000e+00 0.0000000000000000e+00 0.0000000000000000e+00 0.0000000000000000e+00  1.4103493379219751e+02 2.4122599776669511e+00 0.0000000000000000e+00 2.4122599776669511e+00 -9.3607066764184751e+01 0.0000000000000000e+00 0.0000000000000000e+00 0.0000000000000000e+00 0.0000000000000000e+00  7.0697375570154236e+01 1.4991954554795765e+01 0.0000000000000000e+00 1.4991954554795765e+01 -1.7548503519384820e+01 0.0000000000000000e+00 0.0000000000000000e+00 0.0000000000000000e+00 0.0000000000000000e+00  4.3313797044835937e+01 1.1675842596886811e+02 0.0000000000000000e+00 1.1675842596886811e+02 9.3913085780506922e-01 0.0000000000000000e+00 0.0000000000000000e+00 0.0000000000000000e+00 0.0000000000000000e+00  3.5050122634285316e+01 2.9534315877084282e+01 0.0000000000000000e+00 2.9534315877084282e+01 2.7528478569292108e+01 0.0000000000000000e+00 0.0000000000000000e+00 0.0000000000000000e+00 0.0000000000000000e+00  -3.1699160333112516e+01 5.3544283133540340e+01 0.0000000000000000e+00 5.3544283133540340e+01 8.8439732152673187e+01 0.0000000000000000e+00 0.0000000000000000e+00 0.0000000000000000e+00 0.0000000000000000e+00  2.2779291675753356e+01 6.2310769096207552e-01 0.0000000000000000e+00 6.2310769096207552e-01 4.0661586567249010e+01 0.0000000000000000e+00 0.0000000000000000e+00 0.0000000000000000e+00 0.0000000000000000e+00  8.6742634572138879e+00 -1.1229112996692383e+01 0.0000000000000000e+00 -1.1229112996692383e+01 5.4381603751922441e+01 0.0000000000000000e+00 0.0000000000000000e+00 0.0000000000000000e+00 0.0000000000000000e+00  -4.1626076936042416e+01 -1.1351220644450104e+01 0.0000000000000000e+00 -1.1351220644450104e+01 8.5990807974964454e+01 0.0000000000000000e+00 0.0000000000000000e+00 0.0000000000000000e+00 0.0000000000000000e+00  -9.3878794378222679e+01 2.9410469931222543e+01 0.0000000000000000e+00 2.9410469931222543e+01 1.2008849028295535e+02 0.0000000000000000e+00 0.0000000000000000e+00 0.0000000000000000e+00 0.0000000000000000e+00  -3.3981334630973741e+01 7.3217342448588933e+00 0.0000000000000000e+00 7.3217342448588933e+00 8.5288736331344239e+01 0.0000000000000000e+00 0.0000000000000000e+00 0.0000000000000000e+00 0.0000000000000000e+00  -7.9539983699528008e+01 -2.1582146248461967e+01 0.0000000000000000e+00 -2.1582146248461967e+01 1.0684296259383881e+02 0.0000000000000000e+00 0.0000000000000000e+00 0.0000000000000000e+00 0.0000000000000000e+00  -2.1558868646308312e+01 8.1610640833746686e+00 0.0000000000000000e+00 8.1610640833746686e+00 7.0611983412974965e+01 0.0000000000000000e+00 0.0000000000000000e+00 0.0000000000000000e+00 0.0000000000000000e+00  4.2064934907119609e+00 7.1587551497586626e+00 0.0000000000000000e+00 7.1587551497586626e+00 4.8443216207746680e+01 0.0000000000000000e+00 0.0000000000000000e+00 0.0000000000000000e+00 0.0000000000000000e+00  1.0443611441582048e+01 6.6493794217729851e+00 0.0000000000000000e+00 6.6493794217729851e+00 2.6311452723757338e+01 0.0000000000000000e+00 0.0000000000000000e+00 0.0000000000000000e+00 0.0000000000000000e+00  -4.1999212202648629e+01 -4.7970221965797116e+01 0.0000000000000000e+00 -4.7970221965797116e+01 9.0038753392095686e+01 0.0000000000000000e+00 0.0000000000000000e+00 0.0000000000000000e+00 0.0000000000000000e+00  -6.0839763124542472e+01 -6.5731247725531063e+01 0.0000000000000000e+00 -6.5731247725531063e+01 9.7370186500723889e+01 0.0000000000000000e+00 0.0000000000000000e+00 0.0000000000000000e+00 0.0000000000000000e+00  1.3449231703720486e+01 -3.1720544491714218e+01 0.0000000000000000e+00 -3.1720544491714218e+01 2.8262494149824484e+01 0.0000000000000000e+00 0.0000000000000000e+00 0.0000000000000000e+00 0.0000000000000000e+00  2.9949101534263423e+01 -7.7544709776524599e+01 0.0000000000000000e+00 -7.7544709776524599e+01 1.1802378863941225e+01 0.0000000000000000e+00 0.0000000000000000e+00 0.0000000000000000e+00 0.0000000000000000e+00  8.2080994704609225e+01 -1.2222298960529450e+01 0.0000000000000000e+00 -1.2222298960529450e+01 -2.9331759129717184e+01 0.0000000000000000e+00 0.0000000000000000e+00 0.0000000000000000e+00 0.0000000000000000e+00  1.3233331798663593e+02 1.6231308075712786e+01 0.0000000000000000e+00 1.6231308075712786e+01 -1.0266646407031492e+02 0.0000000000000000e+00 0.0000000000000000e+00 0.0000000000000000e+00 0.0000000000000000e+00  1.0399422009043300e+02 -4.2851878357532129e+01 0.0000000000000000e+00 -4.2851878357532129e+01 -6.4378741682254343e+01 0.0000000000000000e+00 0.0000000000000000e+00 0.0000000000000000e+00 0.0000000000000000e+00  4.3932813461665944e+01 -5.5259538875951231e+00 0.0000000000000000e+00 -5.5259538875951231e+00 -1.0712733682713227e+00 0.0000000000000000e+00 0.0000000000000000e+00 0.0000000000000000e+00 0.0000000000000000e+00  1.0872110055679164e+01 7.2788450060304140e+00 0.0000000000000000e+00 7.2788450060304140e+00 2.2702283262947898e+01 0.0000000000000000e+00 0.0000000000000000e+00 0.0000000000000000e+00 0.0000000000000000e+00  -3.8685393505448339e+01 -3.7161030034904506e+01 0.0000000000000000e+00 -3.7161030034904506e+01 7.5849864198183269e+01 0.0000000000000000e+00 0.0000000000000000e+00 0.0000000000000000e+00 0.0000000000000000e+00  -3.1365416774741799e+01 -3.3816526795592722e+01 0.0000000000000000e+00 -3.3816526795592722e+01 8.0312657099586517e+01 0.0000000000000000e+00 0.0000000000000000e+00 0.0000000000000000e+00 0.0000000000000000e+00  4.3117962546108345e+01 -6.7177849550010976e+01 0.0000000000000000e+00 -6.7177849550010976e+01 6.0271688868582594e+00 0.0000000000000000e+00 0.0000000000000000e+00 0.0000000000000000e+00 0.0000000000000000e+00  3.2456339754061510e+01 -4.8292874963613080e+01 0.0000000000000000e+00 -4.8292874963613080e+01 -1.3075239995664090e+01 0.0000000000000000e+00 0.0000000000000000e+00 0.0000000000000000e+00 0.0000000000000000e+00  9.7783467742999136e+01 1.6020465036333885e+01 0.0000000000000000e+00 1.6020465036333885e+01 -6.5679750488929315e+01 0.0000000000000000e+00 0.0000000000000000e+00 0.0000000000000000e+00 0.0000000000000000e+00  1.2088333511892505e+02 -6.7331814263146967e+01 0.0000000000000000e+00 -6.7331814263146967e+01 -7.0111063559056149e+01 0.0000000000000000e+00 0.0000000000000000e+00 0.0000000000000000e+00 0.0000000000000000e+00  2.5915911272328881e+01 2.5785140862830218e+00 0.0000000000000000e+00 2.5785140862830218e+00 1.5100068164767153e+01 0.0000000000000000e+00 0.0000000000000000e+00 0.0000000000000000e+00 0.0000000000000000e+00  1.5051597953706233e+01 5.3811238658874148e+00 0.0000000000000000e+00 5.3811238658874148e+00 2.2694969482306277e+01 0.0000000000000000e+00 0.0000000000000000e+00 0.0000000000000000e+00 0.0000000000000000e+00  2.3841980133988718e+00 -1.7581500106966097e+01 0.0000000000000000e+00 -1.7581500106966097e+01 4.0848040545973795e+01 0.0000000000000000e+00 0.0000000000000000e+00 0.0000000000000000e+00 0.0000000000000000e+00  2.7094451345466258e+01 -2.8450864525477918e+01 0.0000000000000000e+00 -2.8450864525477918e+01 1.6748645427636024e+01 0.0000000000000000e+00 0.0000000000000000e+00 0.0000000000000000e+00 0.0000000000000000e+00  1.8443128241330598e+01 -7.3883166440795037e+01 0.0000000000000000e+00 -7.3883166440795037e+01 2.8570953782249990e+00 0.0000000000000000e+00 0.0000000000000000e+00 0.0000000000000000e+00 0.0000000000000000e+00  5.7217351115255589e+01 -2.9644265187294668e+01 0.0000000000000000e+00 -2.9644265187294668e+01 -1.1874223315816849e+01 0.0000000000000000e+00 0.0000000000000000e+00 0.0000000000000000e+00 0.0000000000000000e+00  1.0019185366000173e+02 -1.4481135348124885e+01 0.0000000000000000e+00 -1.4481135348124885e+01 -6.8156422269932946e+01 0.0000000000000000e+00 0.0000000000000000e+00 0.0000000000000000e+00 0.0000000000000000e+00  5.2613572262573641e+01 1.9806892971671866e+00 0.0000000000000000e+00 1.9806892971671866e+00 -1.8741354116187967e+01 0.0000000000000000e+00 0.0000000000000000e+00 0.0000000000000000e+00 0.0000000000000000e+00  3.3416799612543279e+01 -7.8353372149015419e+00 0.0000000000000000e+00 -7.8353372149015419e+00 1.0693709802731151e+01 0.0000000000000000e+00 0.0000000000000000e+00 0.0000000000000000e+00 0.0000000000000000e+00  7.2405414374180381e+01 3.0636341863655797e+01 0.0000000000000000e+00 3.0636341863655797e+01 -3.0249897882156983e+01 0.0000000000000000e+00 0.0000000000000000e+00 0.0000000000000000e+00 0.0000000000000000e+00  1.2156738831341882e+02 6.8594829351197619e+00 0.0000000000000000e+00 6.8594829351197619e+00 -8.9013350828835740e+01 0.0000000000000000e+00 0.0000000000000000e+00 0.0000000000000000e+00 0.0000000000000000e+00  7.0898769213692091e+01 -1.3457558729637116e+01 0.0000000000000000e+00 -1.3457558729637116e+01 -3.9859415183789139e+01 0.0000000000000000e+00 0.0000000000000000e+00 0.0000000000000000e+00 0.0000000000000000e+00  2.5167940432661581e+01 5.7728042810115255e+01 0.0000000000000000e+00 5.7728042810115262e+01 3.0818187746480632e+00 0.0000000000000000e+00 0.0000000000000000e+00 0.0000000000000000e+00 0.0000000000000000e+00  -2.2792501972511165e+01 1.0690386660342705e+01 0.0000000000000000e+00 1.0690386660342705e+01 6.3428514542376725e+01 0.0000000000000000e+00 0.0000000000000000e+00 0.0000000000000000e+00 0.0000000000000000e+00  -5.4612452360408049e+01 7.3271847641775864e+01 0.0000000000000000e+00 7.3271847641775864e+01 7.9055770470170557e+01 0.0000000000000000e+00 0.0000000000000000e+00 0.0000000000000000e+00 0.0000000000000000e+00  6.8543470715282806e-01 -1.2655986172195473e+01 0.0000000000000000e+00 -1.2655986172195473e+01 3.9077127098099950e+01 0.0000000000000000e+00 0.0000000000000000e+00 0.0000000000000000e+00 0.0000000000000000e+00  4.6797256872073248e+01 -4.3187163578661893e+00 0.0000000000000000e+00 -4.3187163578661893e+00 -1.8774392804331175e+01 0.0000000000000000e+00 0.0000000000000000e+00 0.0000000000000000e+00 0.0000000000000000e+00  1.1196105721166130e+02 2.8279480726828304e+01 0.0000000000000000e+00 2.8279480726828304e+01 -8.8623829627758312e+01 0.0000000000000000e+00 0.0000000000000000e+00 0.0000000000000000e+00 0.0000000000000000e+00  1.0324973410718665e+02 -4.3735259626341104e+01 0.0000000000000000e+00 -4.3735259626341104e+01 -9.7227663983002202e+01 0.0000000000000000e+00 0.0000000000000000e+00 0.0000000000000000e+00 0.0000000000000000e+00  1.4540957806730544e+01 -1.4951395883710360e+01 0.0000000000000000e+00 -1.4951395883710360e+01 7.8701954690990474e+00 0.0000000000000000e+00 0.0000000000000000e+00 0.0000000000000000e+00 0.0000000000000000e+00  -4.9020426270580160e+01 -1.9738350782161405e+01 0.0000000000000000e+00 -1.9738350782161405e+01 7.8249871428348271e+01 0.0000000000000000e+00 0.0000000000000000e+00 0.0000000000000000e+00 0.0000000000000000e+00  -1.2004748757858485e+02 1.1668576187061420e+02 0.0000000000000000e+00 1.1668576187061420e+02 1.4107814072338587e+02 0.0000000000000000e+00 0.0000000000000000e+00 0.0000000000000000e+00 0.0000000000000000e+00  -8.8400021737455976e+00 -1.4774523142623931e+01 0.0000000000000000e+00 -1.4774523142623931e+01 7.2846763828084455e+00 0.0000000000000000e+00 0.0000000000000000e+00 0.0000000000000000e+00 0.0000000000000000e+00  -1.2602086430554141e+02 1.3461594005215917e+02 0.0000000000000000e+00 1.3461594005215917e+02 -4.1985352453352405e+01 0.0000000000000000e+00 0.0000000000000000e+00 0.0000000000000000e+00 0.0000000000000000e+00  3.8533833719595856e+02 2.3720814033896784e+02 0.0000000000000000e+00 2.3720814033896784e+02 9.3896464607215009e+01 0.0000000000000000e+00 0.0000000000000000e+00 0.0000000000000000e+00 0.0000000000000000e+00  9.2763580961955405e+00 1.1137143870683539e+02 0.0000000000000000e+00 1.1137143870683539e+02 9.1110444096709848e+00 0.0000000000000000e+00 0.0000000000000000e+00 0.0000000000000000e+00 0.0000000000000000e+00  5.6075989748307569e+00 6.7253422607257622e+00 0.0000000000000000e+00 6.7253422607257622e+00 -2.2487081381840309e+01 0.0000000000000000e+00 0.0000000000000000e+00 0.0000000000000000e+00 0.0000000000000000e+00  2.0005263439980457e+01 1.1596785507489427e+02 0.0000000000000000e+00 1.1596785507489427e+02 1.6500648578296911e+01 0.0000000000000000e+00 0.0000000000000000e+00 0.0000000000000000e+00 0.0000000000000000e+00  1.9713567326639645e+01 1.1615262764432566e+02 0.0000000000000000e+00 1.1615262764432566e+02 2.8349608331781091e+01 0.0000000000000000e+00 0.0000000000000000e+00 0.0000000000000000e+00 0.0000000000000000e+00  -4.0303643287221931e+01 1.3429742516188334e+01 0.0000000000000000e+00 1.3429742516188334e+01 2.5146813166160378e+01 0.0000000000000000e+00 0.0000000000000000e+00 0.0000000000000000e+00 0.0000000000000000e+00  -2.6811774807330199e+01 -1.9869392001163845e+01 0.0000000000000000e+00 -1.9869392001163845e+01 1.3688680244622926e+01 0.0000000000000000e+00 0.0000000000000000e+00 0.0000000000000000e+00 0.0000000000000000e+00  -7.5410279457092608e+00 -2.2538902626563095e+02 0.0000000000000000e+00 -2.2538902626563095e+02 -5.9350068773997959e+00 0.0000000000000000e+00 0.0000000000000000e+00 0.0000000000000000e+00 0.0000000000000000e+00  1.7758783321695559e+00 -1.4834607190068301e+00 0.0000000000000000e+00 -1.4834607190068301e+00 1.6077417956725846e+00 0.0000000000000000e+00 0.0000000000000000e+00 0.0000000000000000e+00 0.0000000000000000e+00  5.9767180997321177e+00 -2.2920978958851364e+01 0.0000000000000000e+00 -2.2920978958851364e+01 5.8554022275735260e+00 0.0000000000000000e+00 0.0000000000000000e+00 0.0000000000000000e+00 0.0000000000000000e+00  2.0858602212142130e+00 3.4393816382062172e+00 0.0000000000000000e+00 3.4393816382062172e+00 2.2719045820725112e+00 0.0000000000000000e+00 0.0000000000000000e+00 0.0000000000000000e+00 0.0000000000000000e+00  7.9894248909154326e+00 -2.7849713951791333e+01 0.0000000000000000e+00 -2.7849713951791333e+01 7.9911238357334691e+00 0.0000000000000000e+00 0.0000000000000000e+00 0.0000000000000000e+00 0.0000000000000000e+00  -9.2033629668796468e+00 1.2097835165667499e+02 0.0000000000000000e+00 1.2097835165667499e+02 -1.6951028039423897e+00 0.0000000000000000e+00 0.0000000000000000e+00 0.0000000000000000e+00 0.0000000000000000e+00  -2.9023334495327077e+02 -4.0207439850583376e+02 0.0000000000000000e+00 -4.0207439850583376e+02 -1.7724074783696732e+01 0.0000000000000000e+00 0.0000000000000000e+00 0.0000000000000000e+00 0.0000000000000000e+00  -1.5537358036402575e+01 -1.0065930620011149e+02 0.0000000000000000e+00 -1.0065930620011150e+02 -4.0170746824630337e+00 0.0000000000000000e+00 0.0000000000000000e+00 0.0000000000000000e+00 0.0000000000000000e+00  -2.8990331284315038e+00 2.9230972165912913e+01 0.0000000000000000e+00 2.9230972165912913e+01 -2.3916268222429156e+00 0.0000000000000000e+00 0.0000000000000000e+00 0.0000000000000000e+00 0.0000000000000000e+00  -9.2428554905945663e+00 5.8021886758828835e+01 0.0000000000000000e+00 5.8021886758828835e+01 -1.2423080340353301e+00 0.0000000000000000e+00 0.0000000000000000e+00 0.0000000000000000e+00 0.0000000000000000e+00  -2.8257825830313981e+00 1.1094906098871391e+02 0.0000000000000000e+00 1.1094906098871391e+02 -3.6025526124520474e-01 0.0000000000000000e+00 0.0000000000000000e+00 0.0000000000000000e+00 0.0000000000000000e+00  -3.8913191323041594e+00 -1.6930737862288805e+01 0.0000000000000000e+00 -1.6930737862288805e+01 -6.4125871118248075e+00 0.0000000000000000e+00 0.0000000000000000e+00 0.0000000000000000e+00 0.0000000000000000e+00  1.4905312116503923e+01 -2.0846617142476187e+01 0.0000000000000000e+00 -2.0846617142476187e+01 1.4465879607762657e+01 0.0000000000000000e+00 0.0000000000000000e+00 0.0000000000000000e+00 0.0000000000000000e+00  -3.1777467178298147e+00 -2.1358790554403452e+01 0.0000000000000000e+00 -2.1358790554403452e+01 -3.5209358994835989e+00 0.0000000000000000e+00 0.0000000000000000e+00 0.0000000000000000e+00 0.0000000000000000e+00  -1.9577564660253270e+01 -1.2049944529958384e+02 0.0000000000000000e+00 -1.2049944529958384e+02 -1.3077909141742767e+01 0.0000000000000000e+00 0.0000000000000000e+00 0.0000000000000000e+00 0.0000000000000000e+00  -6.2685380327842988e-01 -1.9873842105629695e+01 0.0000000000000000e+00 -1.9873842105629702e+01 -8.2478272077081916e-01 0.0000000000000000e+00 0.0000000000000000e+00 0.0000000000000000e+00 0.0000000000000000e+00  8.0954588874236393e+00 2.7894316438382642e+01 0.0000000000000000e+00 2.7894316438382642e+01 8.5073483255421927e+00 0.0000000000000000e+00 0.0000000000000000e+00 0.0000000000000000e+00 0.0000000000000000e+00  1.2598024745060310e+02 -9.7220613299107342e+01 0.0000000000000000e+00 -9.7220613299107342e+01 1.1667459832264052e+01 0.0000000000000000e+00 0.0000000000000000e+00 0.0000000000000000e+00 0.0000000000000000e+00  9.9620360158676711e+00 -1.9389130353960908e+01 0.0000000000000000e+00 -1.9389130353960908e+01 1.0459278976244786e+01 0.0000000000000000e+00 0.0000000000000000e+00 0.0000000000000000e+00 0.0000000000000000e+00  1.2935097847837756e+01 -9.9377952324720784e+00 0.0000000000000000e+00 -9.9377952324720784e+00 1.3122835186248622e+01 0.0000000000000000e+00 0.0000000000000000e+00 0.0000000000000000e+00 0.0000000000000000e+00  -1.4166913940845161e+00 -1.8320845231374502e+01 0.0000000000000000e+00 -1.8320845231374502e+01 -1.7308187118806775e+00 0.0000000000000000e+00 0.0000000000000000e+00 0.0000000000000000e+00 0.0000000000000000e+00  1.4694551683190593e+00 -6.7768771951236983e+00 0.0000000000000000e+00 -6.7768771951236983e+00 3.5759175949839115e+00 0.0000000000000000e+00 0.0000000000000000e+00 0.0000000000000000e+00 0.0000000000000000e+00  -5.9557554682785900e+00 2.4835777454792805e+01 0.0000000000000000e+00 2.4835777454792805e+01 -6.4921415440399457e+00 0.0000000000000000e+00 0.0000000000000000e+00 0.0000000000000000e+00 0.0000000000000000e+00  -1.7810288370349109e-01 7.1610902739184379e+00 0.0000000000000000e+00 7.1610902739184379e+00 -1.8449558953867136e+00 0.0000000000000000e+00 0.0000000000000000e+00 0.0000000000000000e+00 0.0000000000000000e+00  1.5577615372742285e+01 -2.3239704393715925e+01 0.0000000000000000e+00 -2.3239704393715925e+01 1.5887035509083407e+01 0.0000000000000000e+00 0.0000000000000000e+00 0.0000000000000000e+00 0.0000000000000000e+00  -7.2094111815870363e+00 2.1300499566212142e+01 0.0000000000000000e+00 2.1300499566212142e+01 -9.6629911635200365e+00 0.0000000000000000e+00 0.0000000000000000e+00 0.0000000000000000e+00 0.0000000000000000e+00  4.5939035238079988e+00 -2.4390223232200519e+01 0.0000000000000000e+00 -2.4390223232200519e+01 9.3044520367598285e+00 0.0000000000000000e+00 0.0000000000000000e+00 0.0000000000000000e+00 0.0000000000000000e+00  7.3968896899614949e+00 -9.4356959945868706e+00 0.0000000000000000e+00 -9.4356959945868706e+00 7.1728272175684236e+00 0.0000000000000000e+00 0.0000000000000000e+00 0.0000000000000000e+00 0.0000000000000000e+00  3.9170486119664041e+00 -1.7523055237203714e+01 0.0000000000000000e+00 -1.7523055237203714e+01 3.8442697924152500e+00 0.0000000000000000e+00 0.0000000000000000e+00 0.0000000000000000e+00 0.0000000000000000e+00  4.1202957369427589e+00 -1.2188454495765741e+01 0.0000000000000000e+00 -1.2188454495765741e+01 4.0176068952520865e+00 0.0000000000000000e+00 0.0000000000000000e+00 0.0000000000000000e+00 0.0000000000000000e+00  -2.3634798380370849e+00 -1.6138088046264008e+00 0.0000000000000000e+00 -1.6138088046264012e+00 -6.6164372823257755e+00 0.0000000000000000e+00 0.0000000000000000