<?xml version="1.0"?>
<VTKFile type="UnstructuredGrid"  version="0.1"  >
<UnstructuredGrid>
<Piece  NumberOfPoints="5089" NumberOfCells="9865">
<Points>
<DataArray  type="Float64"  NumberOfComponents="3"  format="ascii">0 1.5 0  0 0 0  0.1029058182573948 0 0  0.1029058182573948 0.02393156642875577 0  0.1251489251828899 0.06631226582407952 0  0.1645395112957465 0.09350162426854149 0  0.2120536680255323 0.0992708874098054 0  0.2568064746731156 0.08229838658936564 0  0.288545602565321 0.04647231720437685 0  0.3 0 0  0.51 0 0  0.5220577136594005 0.04499999999999999 0  0.555 0.07794228634059948 0  0.6 0.09 0  0.645 0.07794228634059946 0  0.6779422863405995 0.04499999999999999 0  0.6899999999999999 0 0  0.8924037639192813 0 0  0.8924037639192813 0.02287028598995353 0  0.9110081306187559 0.06465637775217206 0  0.9450000000000001 0.09526279441628825 0  0.9885018690405581 0.1093974084905101 0  1.033991869381244 0.1046162167924669 0  1.073604366699474 0.08174593080251337 0  1.100490000340686 0.04474103073833802 0  1.11 0 0  1.502905818257395 0 0  1.502905818257395 0.02393156642875577 0  1.52514892518289 0.06631226582407952 0  1.564539511295747 0.09350162426854149 0  1.612053668025532 0.0992708874098054 0  1.656806474673116 0.08229838658936564 0  1.688545602565321 0.04647231720437685 0  1.7 0 0  1.82324056211084 0 0  1.82324056211084 0.02253860454731437 0  1.847611141284377 0.06045996594834066 0  1.888614812938137 0.07918571535047463 0  1.933233201040151 0.07277055962836147 0  1.967300282626494 0.0432512653964478 0  1.98 0 0  2.202905818257395 0 0  2.202905818257395 0.02393156642875577 0  2.22514892518289 0.06631226582407952 0  2.264539511295746 0.09350162426854149 0  2.312053668025532 0.0992708874098054 0  2.356806474673115 0.08229838658936564 0  2.388545602565321 0.04647231720437685 0  2.4 0 0  2.51 0 0  2.522057713659401 0.04499999999999999 0  2.555 0.07794228634059948 0  2.6 0.09 0  2.645 0.07794228634059946 0  2.677942286340599 0.04499999999999999 0  2.69 0 0  3 0 0  3 1.5 0  0 0.75 0  1.5 1.5 0  0 0.375 0  0 0.1875 0  0.75 1.5 0  2.25 1.5 0  3 0.75 0  1.803364316093307 0.8194216192460635 0  0.7085714285714286 0.7914285714285714 0  2.396697907928333 0.698796196655595 0  1.26039230397729 0.6323879781298929 0  1.125 1.5 0  3 1.125 0  0.375 1.5 0  1.418284719659703 1.05567510076647 0  2.625 1.5 0  0 1.125 0  2.4375 1.120298797465005 0  0.4140309460188812 0.4815551607069073 0  0.9375 1.133540466589862 0  1.875 1.5 0  0.4143011358073044 1.085698864192695 0  2.042557228405723 0.4764057674039468 0  3 0.375 0  1.615235786026768 0.4839120951620492 0  0.9172436665953028 0.4786128535408891 0  2.136144598898015 0.9367443054342734 0  2.712089662802327 0.5625 0  1.752709466448716 1.168812671476193 0  2.696461986964791 0.9012929362807449 0  1.307422665144653 0.3094324321200764 0  2.0625 1.24476578117044 0  2.446405755792607 0.3860402512509704 0  0.3158723471199726 0.7836709721106835 0  1.018921994797561 0.831404696897531 0  1.521099871135537 0.7571953762650785 0  2.718190509848388 1.189592528269884 0  0.665307193508031 1.225469494285917 0  1.199897701782483 1.230481185797768 0  0.2233959957266646 1.276604004273335 0  0.6649397520368477 0.3607836886074089 0  0 0.5625 0  2.685543358160364 0.3192521589045413 0  1.775621962986754 0.2975552026784072 0  2.025654700292002 0.7195245521041802 0  0.1961827192748887 0.9897295638426992 0  1.25729921569077 0.8746334216075233 0  1.534142212444284 1.264044413891354 0  1.624439414641745 0.9597398592303362 0  2.117668421489377 0.2641528949307972 0  1.945094170902585 1.053880768096555 0  3 0.1875 0  0.6251639682912251 1.002291403912492 0  0.719601375969486 0.5727782913443102 0  0.2313942916225519 0.3335511938861402 0  0.4687668770508729 0.274248243200137 0  0.5143238740412669 0.6811446824633056 0  1.829350286632844 0.5059917594077202 0  1.082379929992235 0.3249418149194327 0  2.540679850598416 1.305492850437689 0  2.282283153018704 1.279796495628565 0  2.355666841619378 0.9154942188580675 0  0.2114722061938988 0.5448236655965607 0  3 1.3125 0  2.8125 1.5 0  2.263750685400308 0.5173381079832993 0  0.4343085727049624 1.296611441170993 0  1.6875 1.5 0  1.016037518489582 1.324553740130353 0  0.846292314151325 0.9469220663180872 0  1.122827752751251 1.035495517001457 0  1.3125 1.5 0  1.306452909128697 0 0  0.8906638629565067 0.6773217378320744 0  1.517175933126145 0.2981487507037606 0  0.7996957920902151 0.2224603600775558 0  1.446370464174038 0.5785990786868803 0  1.689965192988266 0.6625083927402473 0  0.4864273298880485 0.870473805626289 0  3 0.9375 0  2.831315819563651 1.036097903808422 0  1.106384347284952 0.5163011422226527 0  0.5625 1.5 0  0.9375 1.5 0  0.1875 1.5 0  2.0625 1.5 0  3 0.5625 0  0 0.9375 0  0 1.3125 0  2.4375 1.5 0  2.196044825237544 1.113880351688974 0  2.210431846521007 0.695834380790271 0  0.8262236946704767 1.326155809103077 0  2.523003751809735 0.8349453583788917 0  1.882533682486712 1.30904671408086 0  2.845 0 0  2.813607095438526 0.1837681344374856 0  2.298597604800397 0.280431891689246 0  1.972062138207083 0.8834951655964545 0  1.943392101370151 0.2475417334111557 0  2.828663592588797 0.4267055109367558 0  2.803791026183859 0.7364868569598708 0  2.523250359922468 0.5585816735541729 0  2.602935827188279 1.053310414780935 0  1.692458045540587 1.328962813001376 0  1.232271555781778 0.154950218767993 0  1.36985844680238 1.21899526865025 0  1.785321775315372 1.004919979330962 0  2.534633602602767 0.2439507161942105 0  0.7651985499724481 1.092302611968735 0  2.637828969450683 0.71279922663893 0  1.100469689258933 0.6843495375675052 0  1.315800235513153 0.4755545830105288 0  1.405546076805209 0.1782543944119986 0  2.826282129872177 1.326282129872177 0  0.575884497984488 0.4967904868667201 0  0.1516233666565383 0.826056857120972 0  0.3483704262380678 0.6272257636119053 0  1.568331672486121 1.108640197801574 0  1.475101554186818 0.9082985267599337 0  1.868470483419324 0.6670273102604994 0  0.3467545185571825 0.9433646607171683 0  2.15625 1.373787484318285 0  1.41742615593433 1.367603819494743 0  2.854904919456998 0.8828609574219635 0  0.9476741986655126 0.255395459587152 0  1.267450600339273 1.091056105706913 0  0.114311143675241 0.65625 0  0.65625 1.37859278398136 0  2.170651243108527 0.4023187025489676 0  1.21875 1.380886352874642 0  0.3798992233573569 0.1593768045411093 0  0.9831420651531181 0.9956358347774316 0  1.456186685150796 0.4319140716985383 0  2.586721317152155 0.4269308613840649 0  2.863979293145301 1.178604739864835 0  1.658646098314701 0.8045749301224775 0  1.383553643956373 0.7098158224076794 0  0.154006438477797 1.138458423126247 0  2.856044831401163 0.5977865618779903 0  0.553876003596687 1.130313370813194 0  2.680231675041409 1.360526450748891 0  2.486056782242186 0.9722817331473952 0  1.891212003911469 0.3789027676568836 0  0.8138227412155181 0.37102502168449 0  1.064674644221452 1.192903489156071 0  0.6045358160041144 0.2320910326486189 0  1.194008126159845 0.4081242368041457 0  2.138311355076408 0.5770795769918613 0  0.134142636330111 0.2313017261983794 0  0.8460209454012837 0.8084258449188535 0  0.1293517554287885 0.4305045409359897 0  0.3205820557512212 1.373790064297892 0  0.2928933613730453 1.155196229839076 0  2.404969940572298 1.358123451328196 0  0.9933877375830629 0.5899302104012978 0  2.090287791367255 0.1211621925433303 0  2.904889173308855 0.28125 0  0.1246766077328953 1.375323392267105 0  2.302041695038792 0.7931069109810627 0  2.389228836127323 0.5648368411465005 0  1.886839219693261 1.174850198523801 0  1.96875 1.5 0  2.005259577028834 1.368575570359887 0  2.58746882374347 1.183267841227943 0  1.646515580921743 0.3486369169127919 0  1.980147904783248 0.5942137934419368 0  2.07740167257538 1.055304717195479 0  1.57300338334685 0.6065157750282059 0  1.59375 1.5 0  1.679678032322464 0.2100937046526968 0  2.252673654577562 0.9960348417811178 0  2.17832845930892 0.8178435559778986 0  1.78125 1.5 0  2.021596890434516 0.349571947542988 0  1.79926971381977 0.1752587163176004 0  0.503878860142697 0.3943984894172995 0  1.146622573165596 0.8060813049917908 0  3 1.40625 0  2.649807995179342 0.2020005420916801 0  0.3438742656237004 0.2790576170649142 0  1.546875 1.386334759531577 0  3 0.09375 0  1.320989371181643 0.9800954309611291 0  1.270074893254929 0.7536540780084714 0  2.70770359261854 0.4387759707667409 0  0.5606072232931772 1.296106034499297 0  0.7858104720553775 1.211812834033452 0  2.317237622700128 1.09958886094401 0  2.518665098961854 0.68166123334458 0  1.747777558052355 0.4158756118164814 0  1.683029275145126 1.069756268641544 0  0.46875 1.5 0  2.407758410849746 0.2048845882413086 0  2.396684507181482 1.235853070423643 0  1.919569286509587 0.7755948020085885 0  2.290752654053557 0.4002939182457882 0  0.2367853577638227 0.6856443876677092 0  1.644821718344275 1.219632237269969 0  0 1.03125 0  0.5821665354391095 0.7878606619613046 0  0.6422016866915001 0.674771619551397 0  0.2917070890414653 0.4458139506278615 0  0.7912018819596407 0 0  0.1045102716700244 1.249819735557644 0  1.151091219660612 0.9224858968529193 0  2.719174284445647 1.071883664029489 0  0.7216906855953001 0.918545393630683 0  0.2528020696803429 0.8787006417214202 0  1.726437981314609 0.9055659975386789 0  1.466273966174817 1.158744006060248 0  0.500278661176367 0.9948136517426003 0  1.114706325735654 0.2023659607018325 0  1.193213601931895 0.2926984867334158 0  0.9725372994821596 0.3724679154862157 0  2.214714190066689 0.1991474088029779 0  2.411776451427861 0.8179674328277735 0  1.997105232295531 1.153439169094244 0  0.497834479014996 1.390464488336983 0  0.4532232073331143 0.5868543641678674 0  0.4094710929462204 0.7215160819073434 0  0.2730945637736263 0.1927345247561336 0  2.091452909128697 0 0  1.88727127931541 0.9574017932976476 0  0.7331675361580886 0.4562359341911597 0  0.808798696301996 0.1107204599928528 0  2.794056136375906 0.2935548935723623 0  2.172174128810919 1.263645408055929 0  2.266351953173893 1.389929090293708 0  0.9205129738298803 1.252177379624563 0  2.58760749
[...]
<PointData  Tensors="f_1670"> 
<DataArray  type="Float64"  Name="f_1670"  NumberOfComponents="9" format="ascii">7.0756029648235916e+00 -7.6938025312499150e+00 0.0000000000000000e+00 -7.6938025312499150e+00 -1.9681188205837078e+01 0.0000000000000000e+00 0.0000000000000000e+00 0.0000000000000000e+00 0.0000000000000000e+00  1.4249779840644258e+01 -1.2572300735539903e+00 0.0000000000000000e+00 -1.2572300735539916e+00 3.6073718870704205e+01 0.0000000000000000e+00 0.0000000000000000e+00 0.0000000000000000e+00 0.0000000000000000e+00  4.5650470329665076e+01 -8.9873298230318959e+00 0.0000000000000000e+00 -8.9873298230318959e+00 1.4984260619410385e+01 0.0000000000000000e+00 0.0000000000000000e+00 0.0000000000000000e+00 0.0000000000000000e+00  7.3753532949701921e+01 3.0317476587279920e+01 0.0000000000000000e+00 3.0317476587279920e+01 -2.1512277656621521e+01 0.0000000000000000e+00 0.0000000000000000e+00 0.0000000000000000e+00 0.0000000000000000e+00  1.7551108782192790e+02 -5.6764852331703413e+00 0.0000000000000000e+00 -5.6764852331703413e+00 -1.3174847023272923e+02 0.0000000000000000e+00 0.0000000000000000e+00 0.0000000000000000e+00 0.0000000000000000e+00  9.1039546300940742e+01 1.5273440806982018e+01 0.0000000000000000e+00 1.5273440806982018e+01 -2.9268568400708702e+01 0.0000000000000000e+00 0.0000000000000000e+00 0.0000000000000000e+00 0.0000000000000000e+00  4.2333778938615112e+01 1.5605130613652483e+02 0.0000000000000000e+00 1.5605130613652483e+02 -3.9277124366231662e+00 0.0000000000000000e+00 0.0000000000000000e+00 0.0000000000000000e+00 0.0000000000000000e+00  3.3817820618123349e+01 2.6154703025824748e+01 0.0000000000000000e+00 2.6154703025824748e+01 2.9513766599584081e+01 0.0000000000000000e+00 0.0000000000000000e+00 0.0000000000000000e+00 0.0000000000000000e+00  -5.2218111436783850e+01 8.3326644648046525e+01 0.0000000000000000e+00 8.3326644648046525e+01 1.1587424710062832e+02 0.0000000000000000e+00 0.0000000000000000e+00 0.0000000000000000e+00 0.0000000000000000e+00  1.4471890619215666e+01 1.5281060728188665e+00 0.0000000000000000e+00 1.5281060728188665e+00 4.9715909895336786e+01 0.0000000000000000e+00 0.0000000000000000e+00 0.0000000000000000e+00 0.0000000000000000e+00  4.8065874520767871e+00 -1.4705981953632882e+01 0.0000000000000000e+00 -1.4705981953632882e+01 5.9606833038608222e+01 0.0000000000000000e+00 0.0000000000000000e+00 0.0000000000000000e+00 0.0000000000000000e+00  -6.6936457216690940e+01 -1.6264980179388456e+01 0.0000000000000000e+00 -1.6264980179388456e+01 1.0562855662253948e+02 0.0000000000000000e+00 0.0000000000000000e+00 0.0000000000000000e+00 0.0000000000000000e+00  -1.4172886943199958e+02 3.1403444090315734e+01 0.0000000000000000e+00 3.1403444090315734e+01 1.6435685236368457e+02 0.0000000000000000e+00 0.0000000000000000e+00 0.0000000000000000e+00 0.0000000000000000e+00  -3.3635084599771751e+01 9.9901130134390268e+00 0.0000000000000000e+00 9.9901130134390268e+00 9.1799253191031013e+01 0.0000000000000000e+00 0.0000000000000000e+00 0.0000000000000000e+00 0.0000000000000000e+00  -1.1751904155876737e+02 -2.4086994747422327e+01 0.0000000000000000e+00 -2.4086994747422327e+01 1.4220797273349885e+02 0.0000000000000000e+00 0.0000000000000000e+00 0.0000000000000000e+00 0.0000000000000000e+00  -4.3311908407924165e+01 1.3829888254027333e+01 0.0000000000000000e+00 1.3829888254027333e+01 8.7119993348147460e+01 0.0000000000000000e+00 0.0000000000000000e+00 0.0000000000000000e+00 0.0000000000000000e+00  -2.9946811816325258e+00 1.0534377530638322e+01 0.0000000000000000e+00 1.0534377530638322e+01 5.4648834864543105e+01 0.0000000000000000e+00 0.0000000000000000e+00 0.0000000000000000e+00 0.0000000000000000e+00  -5.2208987558215891e-01 5.9173807064697428e+00 0.0000000000000000e+00 5.9173807064697428e+00 3.3384998198604237e+01 0.0000000000000000e+00 0.0000000000000000e+00 0.0000000000000000e+00 0.0000000000000000e+00  -6.3849031878987610e+01 -5.7485061470778028e+01 0.0000000000000000e+00 -5.7485061470778028e+01 1.1800312803636052e+02 0.0000000000000000e+00 0.0000000000000000e+00 0.0000000000000000e+00 0.0000000000000000e+00  -9.9037083736912138e+01 -1.1216360249751516e+02 0.0000000000000000e+00 -1.1216360249751516e+02 1.3449528932156878e+02 0.0000000000000000e+00 0.0000000000000000e+00 0.0000000000000000e+00 0.0000000000000000e+00  6.1816712144554149e+00 -2.8587226815026245e+01 0.0000000000000000e+00 -2.8587226815026245e+01 3.1738990399551898e+01 0.0000000000000000e+00 0.0000000000000000e+00 0.0000000000000000e+00 0.0000000000000000e+00  2.2934022578305512e+01 -1.0579104740481804e+02 0.0000000000000000e+00 -1.0579104740481804e+02 1.3991278953875431e+01 0.0000000000000000e+00 0.0000000000000000e+00 0.0000000000000000e+00 0.0000000000000000e+00  9.6891389002650286e+01 -1.5380918468043401e+01 0.0000000000000000e+00 -1.5380918468043401e+01 -4.2003870972522918e+01 0.0000000000000000e+00 0.0000000000000000e+00 0.0000000000000000e+00 0.0000000000000000e+00  1.6378704330005169e+02 3.3329475390733009e+01 0.0000000000000000e+00 3.3329475390733009e+01 -1.4585425569402688e+02 0.0000000000000000e+00 0.0000000000000000e+00 0.0000000000000000e+00 0.0000000000000000e+00  1.0565282403147380e+02 -3.8678717727587710e+01 0.0000000000000000e+00 -3.8678717727587710e+01 -6.8076163423627563e+01 0.0000000000000000e+00 0.0000000000000000e+00 0.0000000000000000e+00 0.0000000000000000e+00  3.8444218616807312e+01 8.0201107682538346e+00 0.0000000000000000e+00 8.0201107682538346e+00 9.1759165168835786e+00 0.0000000000000000e+00 0.0000000000000000e+00 0.0000000000000000e+00 0.0000000000000000e+00  1.3911887280646045e+00 8.2069493802652804e+00 0.0000000000000000e+00 8.2069493802652804e+00 2.5086129958581715e+01 0.0000000000000000e+00 0.0000000000000000e+00 0.0000000000000000e+00 0.0000000000000000e+00  -6.6160904883353879e+01 -4.5534949589739540e+01 0.0000000000000000e+00 -4.5534949589739540e+01 9.9576011543322153e+01 0.0000000000000000e+00 0.0000000000000000e+00 0.0000000000000000e+00 0.0000000000000000e+00  -5.5684369758378750e+01 -5.3504686077800059e+01 0.0000000000000000e+00 -5.3504686077800059e+01 1.0837942412485855e+02 0.0000000000000000e+00 0.0000000000000000e+00 0.0000000000000000e+00 0.0000000000000000e+00  3.9840861196126426e+01 -7.8158808210234014e+01 0.0000000000000000e+00 -7.8158808210234014e+01 7.4998613089494768e+00 0.0000000000000000e+00 0.0000000000000000e+00 0.0000000000000000e+00 0.0000000000000000e+00  3.3181452998692976e+01 -6.8163052265239997e+01 0.0000000000000000e+00 -6.8163052265239997e+01 -2.0057947417064824e+01 0.0000000000000000e+00 0.0000000000000000e+00 0.0000000000000000e+00 0.0000000000000000e+00  1.2331257942518761e+02 2.9007649988713638e+01 0.0000000000000000e+00 2.9007649988713638e+01 -9.7804116479505950e+01 0.0000000000000000e+00 0.0000000000000000e+00 0.0000000000000000e+00 0.0000000000000000e+00  1.4466103300828129e+02 -7.5153041891786899e+01 0.0000000000000000e+00 -7.5153041891786899e+01 -7.8279396376143225e+01 0.0000000000000000e+00 0.0000000000000000e+00 0.0000000000000000e+00 0.0000000000000000e+00  2.9226554226700539e+01 8.1078235785010531e+00 0.0000000000000000e+00 8.1078235785010531e+00 1.1153339006325075e+01 0.0000000000000000e+00 0.0000000000000000e+00 0.0000000000000000e+00 0.0000000000000000e+00  8.0336047374594894e+00 7.8506405272292064e+00 0.0000000000000000e+00 7.8506405272292064e+00 2.2323051513387000e+01 0.0000000000000000e+00 0.0000000000000000e+00 0.0000000000000000e+00 0.0000000000000000e+00  -1.2975437404865342e+01 -2.2667188560870052e+01 0.0000000000000000e+00 -2.2667188560870052e+01 5.2904806800585149e+01 0.0000000000000000e+00 0.0000000000000000e+00 0.0000000000000000e+00 0.0000000000000000e+00  1.8810813822795705e+01 -3.2244490530415170e+01 0.0000000000000000e+00 -3.2244490530415170e+01 2.5484973258764626e+01 0.0000000000000000e+00 0.0000000000000000e+00 0.0000000000000000e+00 0.0000000000000000e+00  5.2975714369118583e+00 -1.0064758985448533e+02 0.0000000000000000e+00 -1.0064758985448533e+02 7.2078254451015766e+00 0.0000000000000000e+00 0.0000000000000000e+00 0.0000000000000000e+00 0.0000000000000000e+00  7.4433614769770017e+01 -3.1963415440229582e+01 0.0000000000000000e+00 -3.1963415440229582e+01 -2.5461072088973815e+01 0.0000000000000000e+00 0.0000000000000000e+00 0.0000000000000000e+00 0.0000000000000000e+00  1.2534831950019756e+02 -5.9251820858734998e+00 0.0000000000000000e+00 -5.9251820858734998e+00 -9.4988490573756366e+01 0.0000000000000000e+00 0.0000000000000000e+00 0.0000000000000000e+00 0.0000000000000000e+00  4.3782078214442237e+01 4.0188199420195119e+00 0.0000000000000000e+00 4.0188199420195119e+00 -1.5545539904671839e+01 0.0000000000000000e+00 0.0000000000000000e+00 0.0000000000000000e+00 0.0000000000000000e+00  3.4555737246795317e+01 -1.0544315233831288e+01 0.0000000000000000e+00 -1.0544315233831288e+01 8.6049560934089016e+00 0.0000000000000000e+00 0.0000000000000000e+00 0.0000000000000000e+00 0.0000000000000000e+00  6.5421406203201499e+01 2.9196588285941193e+01 0.0000000000000000e+00 2.9196588285941193e+01 -2.0065666631164685e+01 0.0000000000000000e+00 0.0000000000000000e+00 0.0000000000000000e+00 0.0000000000000000e+00  1.5296574491350660e+02 -1.5377445592438737e+00 0.0000000000000000e+00 -1.5377445592438737e+00 -1.2271357310204611e+02 0.0000000000000000e+00 0.0000000000000000e+00 0.0000000000000000e+00 0.0000000000000000e+00  7.5871058498147377e+01 -9.5277892668069821e+00 0.0000000000000000e+00 -9.5277892668069821e+00 -4.6314696346348740e+01 0.0000000000000000e+00 0.0000000000000000e+00 0.0000000000000000e+00 0.0000000000000000e+00  1.7651435029949315e+01 6.8188656159196498e+01 0.0000000000000000e+00 6.8188656159196498e+01 6.1870117964798528e+00 0.0000000000000000e+00 0.0000000000000000e+00 0.0000000000000000e+00 0.0000000000000000e+00  -4.3941948956202062e+01 3.1731799768533766e+00 0.0000000000000000e+00 3.1731799768533766e+00 8.5016685796306220e+01 0.0000000000000000e+00 0.0000000000000000e+00 0.0000000000000000e+00 0.0000000000000000e+00  -9.4538785411270339e+01 1.1437636606471521e+02 0.0000000000000000e+00 1.1437636606471521e+02 1.1445530664438971e+02 0.0000000000000000e+00 0.0000000000000000e+00 0.0000000000000000e+00 0.0000000000000000e+00  1.1544293689441676e+00 -1.1492064709100418e+01 0.0000000000000000e+00 -1.1492064709100418e+01 4.8753622375209630e+01 0.0000000000000000e+00 0.0000000000000000e+00 0.0000000000000000e+00 0.0000000000000000e+00  2.3775338814615314e+01 -6.9028229650735229e+00 0.0000000000000000e+00 -6.9028229650735229e+00 -4.7392781491147558e+00 0.0000000000000000e+00 0.0000000000000000e+00 0.0000000000000000e+00 0.0000000000000000e+00  1.1839563414758074e+02 1.8966750271015819e+01 0.0000000000000000e+00 1.8966750271015819e+01 -9.1564982048138674e+01 0.0000000000000000e+00 0.0000000000000000e+00 0.0000000000000000e+00 0.0000000000000000e+00  1.0459074608220385e+02 -3.7924587344582569e+01 0.0000000000000000e+00 -3.7924587344582569e+01 -9.8588033354522352e+01 0.0000000000000000e+00 0.0000000000000000e+00 0.0000000000000000e+00 0.0000000000000000e+00  1.2741690012456143e+01 -6.9250172537599237e+00 0.0000000000000000e+00 -6.9250172537599237e+00 1.4353049378256918e+01 0.0000000000000000e+00 0.0000000000000000e+00 0.0000000000000000e+00 0.0000000000000000e+00  -8.3836856653988860e+01 -2.0059460353574117e+01 0.0000000000000000e+00 -2.0059460353574117e+01 1.1728980473125894e+02 0.0000000000000000e+00 0.0000000000000000e+00 0.0000000000000000e+00 0.0000000000000000e+00  -1.9206011558841485e+02 1.6041871496394239e+02 0.0000000000000000e+00 1.6041871496394239e+02 2.1397040966046680e+02 0.0000000000000000e+00 0.0000000000000000e+00 0.0000000000000000e+00 0.0000000000000000e+00  -4.7562002110252113e+00 -1.1089438133774507e+01 0.0000000000000000e+00 -1.1089438133774507e+01 -1.6498418046677955e+01 0.0000000000000000e+00 0.0000000000000000e+00 0.0000000000000000e+00 0.0000000000000000e+00  -1.3292905676855119e+02 1.6585570855943504e+02 0.0000000000000000e+00 1.6585570855943504e+02 -1.3087102990706262e+02 0.0000000000000000e+00 0.0000000000000000e+00 0.0000000000000000e+00 0.0000000000000000e+00  4.0004586276330230e+02 2.4295892927884566e+02 0.0000000000000000e+00 2.4295892927884566e+02 8.2076400213215379e+01 0.0000000000000000e+00 0.0000000000000000e+00 0.0000000000000000e+00 0.0000000000000000e+00  8.5920756988078466e+00 1.4235546973137758e+02 0.0000000000000000e+00 1.4235546973137758e+02 8.4488692380600163e+00 0.0000000000000000e+00 0.0000000000000000e+00 0.0000000000000000e+00 0.0000000000000000e+00  8.3799276346121498e+00 5.4543722722589889e+00 0.0000000000000000e+00 5.4543722722589889e+00 -2.0068724251494292e+01 0.0000000000000000e+00 0.0000000000000000e+00 0.0000000000000000e+00 0.0000000000000000e+00  1.9383120743118717e+01 1.5128978714412142e+02 0.0000000000000000e+00 1.5128978714412142e+02 1.5372130327403090e+01 0.0000000000000000e+00 0.0000000000000000e+00 0.0000000000000000e+00 0.0000000000000000e+00  2.1631762733926877e+01 1.5772051372841344e+02 0.0000000000000000e+00 1.5772051372841344e+02 2.4506019068680882e+01 0.0000000000000000e+00 0.0000000000000000e+00 0.0000000000000000e+00 0.0000000000000000e+00  -3.6373329913380772e+01 1.9357505847331918e+01 0.0000000000000000e+00 1.9357505847331918e+01 2.8879841169835657e+01 0.0000000000000000e+00 0.0000000000000000e+00 0.0000000000000000e+00 0.0000000000000000e+00  -1.8226580069600249e+01 -2.2444107879076878e+01 0.0000000000000000e+00 -2.2444107879076878e+01 1.6751924594613783e+01 0.0000000000000000e+00 0.0000000000000000e+00 0.0000000000000000e+00 0.0000000000000000e+00  -3.7227648209429294e+00 -2.7364977385600491e+02 0.0000000000000000e+00 -2.7364977385600491e+02 -6.9783902068188528e+00 0.0000000000000000e+00 0.0000000000000000e+00 0.0000000000000000e+00 0.0000000000000000e+00  1.1408646390236399e+00 -1.9894653359321515e+00 0.0000000000000000e+00 -1.9894653359321515e+00 9.5264927303747016e-01 0.0000000000000000e+00 0.0000000000000000e+00 0.0000000000000000e+00 0.0000000000000000e+00  5.7051670018938738e+00 -3.4022820928135651e+01 0.0000000000000000e+00 -3.4022820928135651e+01 4.8415585597577584e+00 0.0000000000000000e+00 0.0000000000000000e+00 0.0000000000000000e+00 0.0000000000000000e+00  1.4240746710597456e+00 4.3751230402816983e+00 0.0000000000000000e+00 4.3751230402816965e+00 1.7760445911580995e+00 0.0000000000000000e+00 0.0000000000000000e+00 0.0000000000000000e+00 0.0000000000000000e+00  7.4591432871157881e+00 -4.1144485593827859e+01 0.0000000000000000e+00 -4.1144485593827859e+01 7.2178418326673990e+00 0.0000000000000000e+00 0.0000000000000000e+00 0.0000000000000000e+00 0.0000000000000000e+00  -1.5554311992991288e+01 1.5792788396559564e+02 0.0000000000000000e+00 1.5792788396559564e+02 4.3022518392197506e+00 0.0000000000000000e+00 0.0000000000000000e+00 0.0000000000000000e+00 0.0000000000000000e+00  -5.1336777950879707e+02 -6.4830774639884180e+02 0.0000000000000000e+00 -6.4830774639884180e+02 -5.2136182170774767e+01 0.0000000000000000e+00 0.0000000000000000e+00 0.0000000000000000e+00 0.0000000000000000e+00  -1.4897396919767377e+01 -1.2374018497741073e+02 0.0000000000000000e+00 -1.2374018497741073e+02 3.0043214446413868e+00 0.0000000000000000e+00 0.0000000000000000e+00 0.0000000000000000e+00 0.0000000000000000e+00  -4.0392420049486546e+00 4.3344003113148389e+01 0.0000000000000000e+00 4.3344003113148389e+01 -2.3336304417905342e+00 0.0000000000000000e+00 0.0000000000000000e+00 0.0000000000000000e+00 0.0000000000000000e+00  -1.8145830607509470e+01 7.1426901806042707e+01 0.0000000000000000e+00 7.1426901806042707e+01 6.1628462057323539e+00 0.0000000000000000e+00 0.0000000000000000e+00 0.0000000000000000e+00 0.0000000000000000e+00  -4.2203474446594127e+00 1.3987091117492116e+02 0.0000000000000000e+00 1.3987091117492116e+02 -1.3857594996360445e+00 0.0000000000000000e+00 0.0000000000000000e+00 0.0000000000000000e+00 0.0000000000000000e+00  -4.7316474302694962e+00 -2.0739439883359623e+01 0.0000000000000000e+00 -2.0739439883359612e+01 -6.8311614710503061e+00 0.0000000000000000e+00 0.0000000000000000e+00 0.0000000000000000e+00 0.0000000000000000e+00  1.4672008170607448e+01 -3.1736104189504967e+01 0.0000000000000000e+00 -3.1736104189504967e+01 1.3329535539879922e+01 0.0000000000000000e+00 0.0000000000000000e+00 0.0000000000000000e+00 0.0000000000000000e+00  -3.3870221516876344e+00 -3.2379057316342276e+01 0.0000000000000000e+00 -3.2379057316342276e+01 -4.6078760436725190e+00 0.0000000000000000e+00 0.0000000000000000e+00 0.0000000000000000e+00 0.0000000000000000e+00  -2.6150806046285027e+01 -1.5918851202184439e+02 0.0000000000000000e+00 -1.5918851202184439e+02 -1.1420102854508855e+01 0.0000000000000000e+00 0.0000000000000000e+00 0.0000000000000000e+00 0.0000000000000000e+00  -9.7482244209987756e-01 -2.8948072876234427e+01 0.0000000000000000e+00 -2.8948072876234427e+01 -1.8544263023578504e+00 0.0000000000000000e+00 0.0000000000000000e+00 0.0000000000000000e+00 0.0000000000000000e+00  7.6698931793103435e+00 4.0855969816270814e+01 0.0000000000000000e+00 4.0855969816270814e+01 7.5246454468213004e+00 0.0000000000000000e+00 0.0000000000000000e+00 0.0000000000000000e+00 0.0000000000000000e+00  1.6259668507187519e+02 -6.7263358623272254e+01 0.0000000000000000e+00 -6.7263358623272254e+01 -6.9858275874880826e+00 0.0000000000000000e+00 0.0000000000000000e+00 0.0000000000000000e+00 0.0000000000000000e+00  9.0595334213091672e+00 -2.8688422825693213e+01 0.0000000000000000e+00 -2.8688422825693213e+01 9.9677565372043553e+00 0.0000000000000000e+00 0.0000000000000000e+00 0.0000000000000000e+00 0.0000000000000000e+00  1.2363216920790508e+01 -1.4128977353543441e+01 0.0000000000000000e+00 -1.4128977353543441e+01 1.2275062830570178e+01 0.0000000000000000e+00 0.0000000000000000e+00 0.0000000000000000e+00 0.0000000000000000e+00  -2.2040924103179318e+00 -2.6030961397917810e+01 0.0000000000000000e+00 -2.6030961397917814e+01 -2.1809946657408679e+00 0.0000000000000000e+00 0.0000000000000000e+00 0.0000000000000000e+00 0.0000000000000000e+00  -1.2382975626979982e+00 -1.5300185394536550e+01 0.0000000000000000e+00 -1.5300185394536550e+01 5.9926543762858584e+00 0.0000000000000000e+00 0.0000000000000000e+00 0.0000000000000000e+00 0.0000000000000000e+00  -6.6922058916929812e+00 3.6758798753688495e+01 0.0000000000000000e+00 3.6758798753688495e+01 -7.0857265358057742e+00 0.0000000000000000e+00 0.0000000000000000e+00 0.0000000000000000e+00 0.0000000000000000e+00  4.5347198146259499e-01 1.4066792803726072e+01 0.0000000000000000e+00 1.4066792803726072e+01 -3.4404786218005845e+00 0.0000000000000000e+00 0.0000000000000000e+00 0.0000000000000000e+00 0.0000000000000000e+00  1.5008669887080398e+01 -3.5024181052734704e+01 0.0000000000000000e+00 -3.5024181052734704e+01 1.4980961820728792e+01 0.0000000000000000e+00 0.0000000000000000e+00 0.0000000000000000e+00 0.0000000000000000e+00  -7.5173095849246563e+00 3.2509720146986361e+01 0.0000000000000000e+00 3.2509720146986361e+01 -1.0860579446593635e+01 0.0000000000000000e+00 0.0000000000000000e+00 0.0000000000000000e+00 0.0000000000000000e+00  1.5437972407478053e+00 -3.8126428043435368e+01 0.0000000000000000e+00 -3.8126428043435368e+01 1.1195737465957727e+01 0.0000000000000000e+00 0.0000000000000000e+00 0.0000000000000000e+00 0.0000000000000000e+00  6.8777642682085611e+00 -1.3685959858873394e+01 0.0000000000000000e+00 -1.3685959858873396e+01 6.3206261189435162e+00 0.0000000000000000e+00 0.0000000000000000e+00 0.0000000000000000e+00 0.0000000000000000e+00  3.4499474765211215e+00 -2.5931619170350231e+01 0.0000000000000000e+00 -2.5931619170350231e+01 2.8978642160035966e+00 0.0000000000000000e+00 0.0000000000000000e+00 0.0000000000000000e+00 0.0000000000000000e+00  3.5125217815014116e+00 -1.7932088561251195e+01 0.0000000000000000e+00 -1.7932088561251199e+01 3.3108970892137726e+00 0.0000000000000000e+00 0.0000000000000000e+00 0.0000000000000000e+00 0.0000000000000000e+00  -1.2465139256537461e+00 8.6409902102725198e+00 0.0000000000000000e+00 8.6409902102725198e+00 -8.9468756287757376e+00 0.0000000000000000e+00 0.00000000000000