<?xml version="1.0"?>
<VTKFile type="UnstructuredGrid"  version="0.1"  >
<UnstructuredGrid>
<Piece  NumberOfPoints="4961" NumberOfCells="9546">
<Points>
<DataArray  type="Float64"  NumberOfComponents="3"  format="ascii">0 1.5 0  -0 0.09117947244826481 0  0.0220162612375116 0.1293127555043441 0  0.05279126660105127 0.1634918616050268 0  0.09000000000000007 0.1905255888325765 0  0.1320162612375116 0.2092324335849338 0  0.1770037380811163 0.2187948169810202 0  0.2229962619188838 0.2187948169810201 0  0.2679837387624884 0.2092324335849338 0  0.3100000000000001 0.1905255888325765 0  0.3472087333989489 0.1634918616050267 0  0.3779837387624885 0.1293127555043441 0  0.4009800006813722 0.08948206147667603 0  0.4052662851173224 0.07629023443250138 0  0.4200599930048062 0.1082663100071745 0  0.4475409466961425 0.1444168863592189 0  0.4821507162738997 0.173814689612947 0  0.522270987378618 0.1950851111615262 0  0.5660257807239194 0.2072335697337205 0  0.6113691708029376 0.209692016908736 0  0.6561809510911363 0.2023454984290368 0  0.6983657725469559 0.1855375293336648 0  0.7359511198041838 0.1600540315768036 0  0.7671795437981852 0.1270865851906907 0  0.7895690044779959 0.089875012069959 0  0.7989002782867461 0.1116194513821486 0  0.825485631780658 0.1498156710261111 0  0.8592156240140376 0.1818784194956707 0  0.8987093451417441 0.2064950441012706 0  0.9423499175804944 0.222657737339227 0  0.9883506911670961 0.2297047966493422 0  1.034828388826053 0.2273477145954656 0  1.079880208154309 0.2156829903938285 0  1.121661722375201 0.1951881792237927 0  1.158462391387408 0.1667023410626976 0  1.188775591477674 0.1313916894718022 0  1.211360296672653 0.09070184667606328 0  1.225291886488074 0.04629865962039181 0  1.23 0 0  1.38 0 0  1.384807527838563 0.04574057197990705 0  1.399019999318628 0.08948206147667601 0  1.422016261237512 0.1293127555043441 0  1.452791266601051 0.1634918616050268 0  1.49 0.1905255888325765 0  1.532016261237512 0.2092324335849338 0  1.577003738081116 0.2187948169810202 0  1.622996261918884 0.2187948169810201 0  1.667983738762489 0.2092324335849338 0  1.71 0.1905255888325765 0  1.747208733398949 0.1634918616050267 0  1.763158635297163 0.1457777009465727 0  1.8 0.1732050807568878 0  1.842639353457782 0.1915979024630978 0  1.888371034217905 0.1996616316542537 0  1.934729635533386 0.1969615506024416 0  1.979215953207831 0.1836432213760548 0  2.019431718340557 0.1604246385510087 0  2.053208888623796 0.1285575219373079 0  2.078726528064682 0.08975983604009244 0  2.089496128668151 0.06017060156551748 0  2.099019999318628 0.08948206147667601 0  2.122016261237512 0.1293127555043441 0  2.152791266601051 0.1634918616050268 0  2.19 0.1905255888325765 0  2.232016261237511 0.2092324335849338 0  2.277003738081116 0.2187948169810202 0  2.322996261918884 0.2187948169810201 0  2.367983738762488 0.2092324335849338 0  2.41 0.1905255888325765 0  2.447208733398949 0.1634918616050267 0  2.457084733682728 0.1525234520934048 0  2.4821507162739 0.173814689612947 0  2.522270987378618 0.1950851111615262 0  2.56602578072392 0.2072335697337205 0  2.611369170802938 0.209692016908736 0  2.656180951091136 0.2023454984290368 0  2.698365772546956 0.1855375293336648 0  2.735951119804184 0.1600540315768036 0  2.767179543798185 0.1270865851906907 0  2.790590838130901 0.08817671132765556 0  2.805090316699118 0.04514379244431505 0  2.81 0 0  3 0 0  3 1.5 0  0 0.7956998320486358 0  0.4110904441558352 0.08887894789033324 0  0.7773699356874649 0.1101500221202465 0  1.5 1.5 0  3 0.75 0  0 0.4434396522484503 0  3 0.375 0  0 0.2673095623483576 0  0 0.1792445173983112 0  0 0.135211994923288 0  2.25 1.5 0  0.75 1.5 0  1.807676614587897 0.8837271123414687 0  1.04553857344641 0.8979441530181422 0  2.403437242208115 0.8132876225209357 0  0.5070864579510219 1.00719278150819 0  3 1.125 0  1.338035405010484 0.5883821138073757 0  2.625 1.5 0  0.3818338799394321 0.6099209340690734 0  2.067950237167102 0.5767429460037152 0  1.428016626639016 0.9663701540160734 0  1.875 1.5 0  2.136976695697423 1.114248364898298 0  1.125 1.5 0  0.375 1.5 0  0.7837785056474272 0.5924157926009261 0  2.621900904970652 1.121900904970652 0  0 1.147849916024318 0  1.717071692555337 0.550779009763445 0  1.678619011272733 1.204235418149387 0  0.8184015011321764 1.160011833453945 0  2.690771901920515 0.5625 0  1.191553529739931 1.18494431212041 0  2.361743998733192 0.516240498397431 0  2.727335050325185 0.8509414958930873 0  1.061120194703906 0.6196995992969355 0  0.269244960297408 0.8637990218922467 0  0.7609530458041533 0.8768664729047809 0  0.5625 1.286150286226427 0  0.2788879438654684 1.226607136693913 0  2.077535333020466 0.8486969269297693 0  2.4375 1.312474598220077 0  2.809426100237187 1.309426100237187 0  1.544358239139601 0.7389704993474611 0  1.434454912167138 1.210530519498476 0  2.380335199591509 1.061271835208851 0  1.926191456889599 1.252931474193008 0  0.5486378118088926 0.7757115443742588 0  0.5753328044103648 0.454959652232189 0  1.281333603460298 0.3634530521588742 0  0.9959109141311655 1.308173392725312 0  1.507364216928931 0.4358170942512657 0  1.21812632380771 0.7680504611018459 0  0 0.6195697421485431 0  1.3125 1.5 0  0.2892140007400885 0.4197188740688536 0  1.924109453869066 0.4139433366638808 0  0.9329747065756857 0.4375180073994652 0  2.243231692495831 0.684324343130167 0  2.0625 1.5 0  2.124178136191116 0.3821183579116478 0  1.923364695744858 0.7179848099571996 0  2.233034933769442 1.295537230099697 0  1.961794510294921 1.014032929092127 0  0.9133498533613748 0.7509830595402348 0  0 0.9717748740364769 0  0.1875 1.5 0  0 1.323924958012159 0  1.227107007305785 0.9862124750220198 0  1.616617139708145 0.9194004298184476 0  2.811636610329211 1.039737091854792 0  0.1901803394569171 0.5855957240372172 0  2.511165533602297 0.6467174115519351 0  2.536466024168012 0.9507486861843897 0  0.1866521719860137 1.047526440960541 0  2.74946330463778 0.3751246081287475 0  2.543804048982231 0.4145708923164018 0  0.9375 1.5 0  2.4375 1.5 0  0.5625 1.5 0  3 0.5625 0  1.6875 1.5 0  3 0.1875 0  3 0.9375 0  3 1.3125 0  2.8125 1.5 0  1.010044310702206 1.096645863828023 0  2.623488142128434 1.314011651358178 0  2.229558763998408 0.9540962470011799 0  2.845385950960257 0.65625 0  0.7525337220569124 0.4130199536593896 0  1.10537722367743 0.3921278680533664 0  0.6842290971134891 1.039833940778862 0  0.7386374643770518 1.32083913541365 0  1.553387564684306 1.08522930563603 0  1.788789291239656 1.06235950910253 0  1.559809215736361 1.334301807720895 0  1.750410104758408 0.7205088288478614 0  1.672011031024921 0.3842266692686779 0  1.77867146649739 1.349246747510312 0  1.21875 1.355246746101045 0  0.8723426006985372 1.001666865795386 0  1.380631426145093 0.7466576340788873 0  0.4259246536592668 0.3283409344703117 0  0.3444360723462823 1.008028502358495 0  0.6161474109915657 0.6198433096250735 0  0.4265019066463465 1.151756411601508 0  1.403034104827827 1.367717620859348 0  2.874684993382777 0.28125 0  2.874778249279309 0.46875 0  2.071314369495706 1.334001876948522 0  2.3 0.3730371416193449 0  1.322682484320052 1.105857305698365 0  1.563127563616163 0.5828461597844022 0  2.559040610931566 0.7958017532902765 0  1.213306121383676 0.5002133671656324 0  1.916121887065227 0.5659454196943852 0  2.207677378621353 0.5116761937353096 0  0.1257028237453774 1.235887437018238 0  0.7203062975228639 0.7304636720840537 0  0.3921145397364951 0.7663844669080319 0  2.70905347612285 0.7067207479465436 0  2.87968965213058 0.84375 0  0.1396742765227637 0.3714373577111671 0  0.1209675020841686 0.8837373530425563 0  0.1396318055029159 0.7309656161457982 0  0.4039274761094683 1.336239793581983 0  2.676470777350768 0.9877614171414461 0  0.2098223519481562 1.355491059017463 0  0.6161949108813681 0.9073080762684851 0  0.6728981805985057 1.187471545812503 0  0.4313243650936899 0.473428383024358 0  1.317579957488075 0.8752219089473544 0  1.05247475519209 0.7587740171666131 0  0.9218858728134471 0.6117854803862035 0  2.343741823603972 1.201704901656183 0  2.483180588903391 1.163054990844907 0  1.336494261441537 0.237261632693729 0  2.096334636915305 0.983917300563715 0  2.059942810014369 0.7131710752499992 0  1.940957218750955 0.8535106616369695 0  0.2735884026449029 0.6956028768230409 0  2.3791553829517 0.6794620539851567 0  2.443566922502795 0.3224565874575337 0  2.21140571429892 0.8179437442036444 0  2.863880028189143 1.175018869261394 0  1.212122991296861 0.6341965806889284 0  0.8702381850023826 1.37471255674248 0  0.4252003220264352 0.89843828480276 0  2.714126143737636 1.217200861470203 0  2.34375 1.406237299110039 0  2.71875 1.406237608026668 0  2.903224894283775 1.403224894283775 0  2.53125 1.5 0  1.444637821860123 0.3169971434781329 0  1.307097209138961 1.253815337580837 0  1.806074818262501 0.3310941379078186 0  0.09375 1.5 0  1.96875 1.5 0  1.467196512253796 0.8429542418758076 0  0.7811182225539175 0.2860230046382459 0  0.8880470276332622 0.8755399020562793 0  2.004554624687214 1.142507703833496 0  1.901808674873915 1.376717053991818 0  1.80956117606876 1.192202387775541 0  0.65625 1.5 0  2.256163989601168 1.076312782066936 0  2.35728348455407 0.9340561611988477 0  0.5508073343087652 1.161974855816299 0  1.822201850254356 0.484799098822588 0  0.6415475671733072 0.3394071993736185 0  0.6854011703162045 0.5171310296285601 0  2.010601404748645 0.3128962050875828 0  1.458109478391155 0.6494112449225909 0  1.556659288882675 1.21212759481645 0  2.15625 1.5 0  1.102952541966123 1.010721102324488 0  3 0.09375 0  2.905 0 0  1.698833571793874 0.8302602504158462 0  0.1128136071602732 0.4908067814983783 0  1.375215724596343 0.4593979824254396 0  1.667188501011557 1.033651962891267 0  0.5152717989473731 0.5573202673988191 0  0.4756630816937197 0.6823252715484635 0  2.485944291803511 0.5248037876852512 0  0.609375 1.393075143113214 0  1.657554629504312 0.6506084627130724 0  1.180547956106694 0.2992004577305749 0  1.040994897946075 0.4976964206623483 0  2.883588023402782 0.1625217501240843 0  1.437965738677728 1.09476840787
[...]
<PointData  Scalars="f_66"> 
<DataArray  type="Float64"  Name="f_66"  format="ascii">1.3245980831640805e+01  -2.6388945967447508e+01  -2.4364466313777839e+01  -2.2569258990047143e+01  -2.1116789954430601e+01  -1.8839848791664949e+01  -1.8291842653182638e+01  -2.0269624664921466e+01  -2.0872349705894990e+01  -2.1492057361095782e+01  -2.1262215352719551e+01  -1.9799651939481038e+01  -1.9850267852391863e+01  -1.9881820938319084e+01  -1.9551480409907903e+01  -1.9051043583929633e+01  -1.8324229606698484e+01  -1.9516852846660676e+01  -2.0678779244624767e+01  -2.0342892353086054e+01  -1.9768047861046320e+01  -1.8037958631273924e+01  -1.7541213732877523e+01  -1.7874206705393473e+01  -1.7996541409158624e+01  -1.7784338918778833e+01  -1.7985854187245078e+01  -1.9368597101518173e+01  -1.9236045305111798e+01  -1.8040130867275057e+01  -1.7243725775084581e+01  -1.5382941847702623e+01  -1.6450347070679733e+01  -1.7473283181979639e+01  -1.8645309223140774e+01  -2.0129154685993097e+01  -2.0823233818286198e+01  -1.9892875286143429e+01  -2.0563102440266285e+01  -1.8073586275680871e+01  -1.8056753948786046e+01  -1.7653661794028917e+01  -1.7292624618833848e+01  -1.8207323881259434e+01  -1.8368105541760205e+01  -1.7046203371629154e+01  -1.6067079527916345e+01  -1.3830637083895365e+01  -1.3992765219279985e+01  -1.6257707431092594e+01  -1.7047107665934991e+01  -1.7876881745766696e+01  -1.6632487577481346e+01  -1.5575453411143995e+01  -1.4518557461050607e+01  -1.2531500438320464e+01  -1.3597727807408123e+01  -1.5028820685415912e+01  -1.6344154684622314e+01  -1.8206428191818098e+01  -1.9619264574726149e+01  -1.8104030355758280e+01  -1.6110924203260417e+01  -1.4441769162441902e+01  -1.3047266031669716e+01  -1.1221318297140199e+01  -1.0540519124709784e+01  -1.1532141382454650e+01  -1.1957648795189614e+01  -1.2161538312996152e+01  -1.1010351301207809e+01  -1.1928873209476647e+01  -1.0479963524917155e+01  -9.2915856903142906e+00  -8.5309001347975908e+00  -9.0674205317193231e+00  -9.4365532706744606e+00  -1.0571387979874535e+01  -8.7282472919877794e+00  -6.6238324906371000e+00  -5.1377520647326032e+00  -4.7551978447183556e+00  -4.8517465188944371e+00  0.0000000000000000e+00  0.0000000000000000e+00  -7.9297223824968004e+00  -1.9778982588565970e+01  -1.7883785144837319e+01  1.7791990306443392e+01  0.0000000000000000e+00  -1.6958230524118271e+01  0.0000000000000000e+00  -2.0436518968741986e+01  -2.2067455047109110e+01  -2.4169379722064100e+01  1.5266398953071977e+01  1.2681839642969402e+01  -4.9779060400127140e-01  -2.2669079227455500e+00  -4.4477102226306692e-01  -1.1372909394409232e+00  0.0000000000000000e+00  -8.9308160710256903e+00  1.3521865944894115e+01  -1.1448404936094626e+01  -6.4306009904465835e+00  4.2224575723492619e-01  1.6197271374848629e+01  5.2584926438906914e+00  1.4607308910387220e+01  1.2624133481003589e+01  -1.0701008353555405e+01  4.7988437137112721e+00  1.3787610209559100e+00  -8.6086266418493835e+00  6.7960867660795783e+00  3.5397042838828248e+00  -3.0949740314517444e+00  5.2217663676687547e+00  -6.0074448149847344e+00  2.8867608831619451e-01  -9.1144002106233888e+00  -5.4079346687977390e+00  -3.6486915816568657e+00  6.1066771286180686e+00  3.8883018482453848e+00  -5.1913508676611031e-01  9.1690845845136462e+00  4.4215911361308970e+00  -4.6871504827996420e+00  6.3877752510588772e+00  4.1875830562703253e+00  8.3902940201852019e+00  -6.8623525690297811e+00  -1.4873909511142639e+01  -1.4365647942277240e+01  7.9013007888368438e+00  -1.2223203360548831e+01  -4.9343634250374793e+00  -1.2543216015991229e+01  1.4317263124288166e+01  -1.6559780848822559e+01  -1.0863666774879706e+01  -1.4052466503519591e+01  -3.3572099632671044e+00  1.7671958262942802e+01  -1.0485032112909686e+01  -3.9145482463952344e+00  9.3590480711497133e+00  2.8862338547418824e+00  -6.3066443939292425e+00  -3.3131567254540570e+00  1.1657943893111986e+01  6.1483171658661551e+00  4.4852540885184450e-01  -1.3582682779351238e-01  1.6466442063722957e+00  -1.2769712516194666e+01  -2.9405725939618264e+00  2.0075644300642339e+00  -9.2861441900785657e-01  -5.5728497293927779e+00  -6.3118858684665495e+00  1.5478723538716237e+01  1.7275128797244850e+01  1.4635497739321355e+01  0.0000000000000000e+00  1.5288949244046913e+01  0.0000000000000000e+00  0.0000000000000000e+00  0.0000000000000000e+00  9.7353024514548245e+00  2.6025904671284028e+00  8.0166722274599049e+00  1.9804441772834984e+00  -1.0084923806587422e+00  -1.5244358384505482e+01  -1.4543126229562773e+01  2.9001712673359031e-01  7.5327007333738356e+00  3.7077189734997291e+00  3.6233318702917887e+00  9.9339958369585268e+00  -4.4642753076444777e+00  -1.2752461096281221e+01  1.0820462763383107e+01  9.9148732870531813e+00  -2.2796179029285119e-01  -5.0183040226262090e+00  -1.8175415137395614e+01  -1.4517160056254323e+00  -1.0546965746537152e+01  2.3904359289439814e+00  1.0354811410921675e+01  -3.4622292696166808e+00  -1.9244285479195014e+00  1.0533717419392072e+01  -9.3840119465926382e+00  3.6432807656977508e+00  -8.4186208942003766e+00  -1.8871792727268000e-01  -1.1456969744153424e+01  -7.4188688287147189e+00  -7.1782110859668355e+00  3.8463739549232754e+00  -7.4115377707878141e+00  -7.4652739545611713e+00  -1.2836373972768638e+00  6.0364297510105580e-01  -1.7967117816220799e+01  -5.3035487513135342e+00  -9.1991696070754703e+00  7.1086957881240433e+00  2.4762663454497282e+00  6.9999528371213966e+00  -3.2783691227842211e+00  3.9807035216596400e+00  -1.4751065431214453e+01  -2.0119707496819719e+00  -5.6938839228597447e+00  -9.7454380178864461e+00  7.1034870197969742e+00  5.6419852453434292e+00  -1.7089912958710663e+01  2.4067615839766638e+00  -3.4738933973992698e+00  -7.8697007522364892e-01  -9.6872959608253115e+00  -2.8582339226508688e+00  -9.3107837930301809e+00  -8.5872654652354896e-01  2.5850329939099161e+00  -8.2220904969452562e+00  9.6020877788616570e+00  -4.0407676495022802e+00  5.0496495687882437e+00  1.2186337411808111e+01  9.9216920213449260e+00  4.1500358854038231e+00  1.3538696825464825e+01  -1.5287460562259088e+01  7.2896794885252776e+00  -1.3310591129900965e+01  1.1529007630528232e+01  1.5229888872534151e+01  -2.4472740394865058e+00  -1.7681556826929913e+01  -3.3063901420516681e+00  5.8540581370932268e+00  1.1548883105756188e+01  6.7575981595381860e+00  1.4006477607730824e+01  4.5641099186188514e+00  1.8640450985806050e+00  2.8861796846799344e+00  -9.7521283736198665e+00  -1.7457959403261423e+01  -1.2900098808588517e+01  -1.2576347305436997e+01  -7.1699089169512105e+00  6.8194827467840620e+00  1.7009349072435768e+01  6.2670451556825546e-01  0.0000000000000000e+00  -4.5446414621355977e+00  -2.0412642559439291e+00  -1.5330918703707900e+01  -1.1965148848915124e+01  2.6941880092840611e+00  -1.2484603461144607e+01  -9.4170092651886801e+00  -5.2197613699589311e+00  9.7569910678625611e+00  -6.4374121515784806e+00  -1.6240615336360413e+01  -1.2200407189459089e+01  -3.7627445590705189e+00  3.5662660076831192e+00  5.4253385956216205e+00  4.9411460483370284e+00  9.9463334905549328e+00  4.9085926892646778e+00  7.6642858543270913e+00  1.2842078384974847e+00  1.2217329600779541e+01  -1.4512565483780328e+01  -5.9217955329627934e+00  -1.0559758995765167e+01  6.3390169397769727e+00  6.8134003795664215e+00  9.4878483405837830e+00  1.1501299917562871e+01  -9.9126809972340446e+00  3.5930372487549698e+00  -6.2115092705958963e-01  1.1947376475808220e+01  -2.4086622243018674e+00  -8.6060919346923139e+00  -1.2709869919133100e+01  -1.7541075593457137e+01  -6.6596992771778458e+00  1.4899280503035921e+00  -1.3048981104931498e+01  -1.5856843760861409e+01  -1.6571531242560450e+01  1.2748987964870517e+00  8.3152084016965802e+00  6.5759884592755160e+00  -9.7683158458068842e-01  9.8048941564823033e-01  -1.8969254304472120e+01  -1.3986650858210513e+01  7.4268079486693246e+00  -7.8313308220573754e+00  1.1357273762009880e+01  -4.8107137805090625e+00  -3.8618848544320254e+00  2.3608115861019900e+00  -1.2453163070656335e+00  1.9513157390145093e+00  9.6582048404806264e-01  3.1360914973239353e+00  -2.5684145083108572e+00  7.3845266117053177e+00  -1.2933985959772145e+00  -4.5044720081208114e+00  -4.6184867820731403e+00  6.3871399983982180e-01  -1.3053877857216735e+01  -5.6775990448467439e+00  9.3393749447882044e+00  -8.4234877014768283e+00  -1.1101626013066868e+01  1.5070249503780664e+01  -6.3974920914959643e+00  -8.4568867781313664e+00  -7.0847478289670969e+00  -5.3399396214994370e+00  -2.7780273195884253e+00  2.5940555414123727e+00  4.5848545125628798e-01  -1.3177481048875042e-01  1.0563415492489856e+00  1.0608571076769640e+00  1.6182824570239320e+00  -1.9417170107404136e+00  -3.5193588643607026e+00  1.0997079211215130e-01  0.0000000000000000e+00  -6.4241723297994406e+00  1.3671406134353083e+01  1.0588501111787121e+01  -1.8466605838638628e+00  -9.1543427238111152e-01  -4.1560549162562408e+00  -5.4771848890439241e+00  -7.6767337968440561e+00  1.2374135914860339e+01  -2.3320484206296996e-01  -2.5248452652098368e+00  -1.0166251320141564e+01  3.0414367674052585e+00  -1.2073072060015761e+01  -1.4736315739789919e+01  -1.3008406258710153e+01  -1.8810883917366162e+01  6.3613535793915403e+00  -1.0337293087134949e+00  -1.7787777842495196e+01  9.0426942648262756e+00  3.4890027544306665e+00  4.1510946413358951e-01  -3.5044362820732733e+00  4.4664995989412306e+00  -8.0327362704140359e+00  -8.1049096749140048e+00  -4.2565289429763764e+00  -3.3591348221604354e+00  0.0000000000000000e+00  1.5333705386020098e+01  1.6412087200751905e+01  1.4730276625687075e+01  0.0000000000000000e+00  1.4741467517168182e+01  1.6881202912483815e+01  1.8088759692817430e+01  0.0000000000000000e+00  0.0000000000000000e+00  0.0000000000000000e+00  0.0000000000000000e+00  5.4339489335957509e+00  1.4522253777390107e+01  6.8687902524741373e-01  1.0140702926592459e+01  6.7861570605560528e+00  -4.2000466562736074e+00  4.5343833465649670e+00  1.1958497218939665e+00  -7.7507701470993036e+00  5.4253851110469986e-01  1.1279218871332088e+01  3.4317414436308891e+00  6.3785534331433045e+00  -4.1818925552499744e+00  -1.4686997244993794e+01  -2.0576653201114583e+00  -1.9760377517065464e+00  4.2156599440004774e+00  5.2074155172138186e+00  -1.9564239872865532e+01  -1.5233429362224857e+01  -1.0433984964198903e+01  6.2926223789215587e+00  1.8597624331215010e+00  -1.1715658322874507e+01  8.9715443614733843e+00  9.2305215131039802e+00  -1.0228166065251934e+00  2.2409579431036781e+00  1.5847258838046696e+00  4.7330415212175749e+00  7.1097448487590276e+00  1.0189311406629656e+01  -2.2008089555998285e+00  2.3336648235947837e+00  -1.0289464705230477e+01  -1.6042014945835355e+01  -1.3757759144065274e+01  1.7715103222382582e+00  9.9954984188279621e-03  -5.2572706862774554e+00  8.5880635974884107e+00  9.5711355408901770e+00  1.2450700949951047e+01  8.2250349111853112e+00  -1.4735636798502327e+01  -1.8979880746407787e+01  9.9595078554813963e+00  -5.6135524616989230e+00  3.7661577138445916e+00  -9.1653430942284579e+00  -7.5610960425357927e+00  1.2575159137577472e+01  -1.1961949966765859e+01  3.2943562461813296e+00  -1.9752282663294366e+01  -6.0102339643186191e+00  1.0646543272501846e+01  2.5141246847005760e+00  -6.5293754486328535e+00  5.0430991553312641e+00  2.0654509029159054e+00  1.2564424485077954e+01  1.3814106419988285e+01  -1.2410439578887491e+01  3.3202192479289141e+00  -2.5692939937952395e+00  -1.8615112530206528e+00  -1.0731136276158454e+01  -1.2718692056774367e+01  -1.4134627202491263e+01  1.2412985236568586e+01  -7.5902810177957516e+00  -5.5550607185785061e+00  -1.4053533775171989e+01  1.0202720301426830e+01  7.7877297516272153e+00  -1.4973067643455193e+01  -1.0926274345735406e+01  5.2125305325876203e+00  9.1505334983246236e+00  1.3836034603222737e+01  9.7556084023541434e+00  -3.8161182374819558e+00  2.9510825792866902e+00  1.0377539610407509e+00  1.7206123436563039e-01  -1.9095093755371075e+00  -1.0593397526231517e+01  -1.7903801656474695e+01  -1.8850022168472162e+01  7.5968495437803227e+00  7.5731118702877609e+00  -4.0058842514599480e+00  -4.1584847850797830e+00  -7.0555760837044010e+00  -5.1515062246538488e+00  -1.9782333734656330e+01  -1.6331358720113457e+01  1.3336111288016328e+01  -1.1545423040470290e+01  -3.6235864665516062e+00  -1.7514083760288666e+00  1.9803716502333812e+00  -1.2526958380330742e+01  -7.8799213903809902e+00  -1.9077567905454941e+01  9.8165376634253825e+00  -2.1701624547862020e+00  8.1032809017753511e+00  -1.0180603910206671e+01  -1.4113067519837502e+01  -7.1306600384002126e+00  -2.3358135277309877e+00  -8.6046121474997452e+00  -6.4002858578749446e+00  -1.0302893274677061e+01  -1.7165733865546898e+01  -1.8920767354087751e+01  -1.5787467198610312e+01  -9.4498123162378533e+00  -2.2462230408686090e+00  -2.0207572281051114e+00  7.2615108557336763e+00  -1.0607847156176806e+01  3.3516307738573285e+00  -1.9350476993236079e-01  -9.4612092678064883e+00  -1.7883495350205440e+01  -6.4047809854965205e+00  -7.5118601734637398e+00  -1.1253537631681269e+01  -1.0497059480509789e+01  -1.7090408632029529e+01  -1.0209192718561745e+01  3.5104312325577673e+00  2.5410548860947575e+00  2.3609673311853840e+00  4.8344682365409470e+00  4.2440419853313385e+00  -3.0085962074388592e+00  -1.0472568167867585e+01  6.0159132540082885e+00  9.3287795400856222e-01  4.3888676201411000e-02  -1.8711414867577744e+01  -5.6868295035050247e+00  -9.1383435138395903e+00  -1.3811936790231037e+01  -5.4559931382875320e+00  -8.8746872505680567e+00  -1.5647108712821241e+01  7.9586499749189068e+00  -1.3414171434733742e+01  -1.4435899864753781e+00  -1.2603004722336266e+01  -1.8250768237189330e+01  -1.7017195805378591e+01  -1.9979255489562262e+00  -4.3270598203539326e+00  -5.9962939763063341e+00  5.4627654912721191e+00  -1.0967894599287154e+01  6.7280011533840316e+00  4.6602052188253396e+00  -1.6063324512432136e+01  -1.4598528360802666e+01  4.5553362521353886e+00  1.0413994761614738e+00  -4.9186031587580272e+00  -3.7641764660670849e+00  -6.7606887142283147e+00  4.8658926116136785e+00  -1.0655146452083786e+01  -2.1249440099229053e+00  9.1937400066945116e+00  -6.9530981473098388e+00  5.4147805040635486e+00  5.4792138168089553e+00  6.3945970842616342e+00  9.1216549828869198e+00  -1.2262971567695509e+00  1.3275190473381810e+00  -1.2647841567482033e+01  -5.4190783318935598e-01  6.0237188678519615e+00  -1.6534899901178502e+01  -1.3142379828049037e+01  8.2180166883342025e+00  5.6447063604956140e+00  2.1770595439399103e+00  1.9459321039758752e+00  2.5006987233013991e+00  -1.6348402388162151e+00  -5.5677128484262521e+00  -1.2176105618973458e+00  7.9207476520259190e+00  -1.3431782963850645e+00  -6.0356055919334848e+00  -1.6415216980257235e+01  -1.1327413179995341e+01  -3.1167406825630812e+00  -1.7944113217357486e+01  9.4210873287406419e-02  5.3539045554252440e-01  -8.6663802256116416e+00  3.3688250538122566e-01  -7.1956502421831470e+00  -1.3507701333846620e+00  1.3027294709784451e+01  7.9874273943862804e+00  -1.8284433876634655e+01  1.0818594249611944e+00  1.1617121225200821e+01  3.6736484664987690e+00  1.2349790185706116e+01  -3.1858498942045070e+00  -5.3721976469565167e+00  1.1627673051327903e+01  7.1036421480688250e-01  1.3874087011024331e+01  -1.3878753256653663e+01  1.2644159104009836e+01  -8.0537088362041285e+00  -7.4055196848604190e+00  -5.9539011754058464e+00  -1.0961634541293217e+01  -4.8566826680388635e+00  -1.5610776789244603e+01  2.2573453426862371e+00  -1.3023781114662768e+01  8.1876546772910093e+00  -1.0363773093293233e+01  -7.2539622272684445e-01  2.7934602737480927e+00  -3.7963792656152058e+00  -1.7446734636976693e+01  -1.5640853402672239e+01  -3.5736073380463482e+00  1.1705733195675549e+01  1.0786401606225771e+01  -1.9948787454481702e+00  -9.2325819705629382e+00  -1.8743106507191420e+01  9.0178854294734767e-01  -1.1918146744496743e+00  -2.4070446467084072e+00  -4.9755108922565343e+00  -3.5130668758826160e+00  -4.5362546272006055e-01  1.4097995620411615e+01  -1.9255269895284401e-02  1.9896395089465213e+00  9.2857122944433534e-01  -7.8850671240525099e+00  -3.1423424131243491e+00  -1.6521019601065317e+00  -3.0448070959114921e+00  -1.4178013693274684e+01  -7.6695617782215368e+00  -4.2961408444521059e+00  -3.4620100386673105e+00  -1.3319685318214166e+01  4.5010284476099764e+00  6.0672068961715491e+00  -1.5862811652199555e+00  3.0470611307806514e+00  -1.7043183009449475e+01  -8.6656470223344595e+00  -1.0260002536995920e+01  4.5016574409931422e+00  6.0666797570653905e+00  -3.0539946938861813e+00  1.1806959046890018e+00  -1.1621125902744451e+01  1.0783762615804699e+01  -6.5545075656316207e+00  -6.9485603432840337e-01  -2.3014788166326956e+00  -1.2701708464547834e+00  -1.6250890721237337e+01  3.8156489127341846e+00  -1.1488742658361504e+01  -1.1517538426680625e+01  3.2638859416935619e+00  1.3989532296165070e+01  -8.5776326147580182e+00  6.0719188381138238e+00  6.0634395762776885e+00  2.7860063826302239e+00  4.7122258357318270e+00  6.6336089819191999e+00  1.5178643956442112e+01  1.0787999211493318e+01  3.1461032308961880e+00  2.3131766574289285e+00  4.4216052508535366e+00  6.1684210411970621e+00  1.4733248379490227e+01  5.2091938774717850e+00  7.0296794488965189e+00  -3.4072574593815902e-01  -1.4349999191116677e+01  -8.3028505494862213e+00  -1.4151990537267395e+01  9.8675188008789636e+00  8.5619824772222781e+00  -1.0419805118839836e+00  -7.4174656005949196e+00  -7.5497962308136319e+00  6.7211346583567995e+00  1.6550813925495895e+01  2.9871606953803278e+00  1.9658972566083810e+00  -6.1728494031250971e+00  -8.9572728987418557e+00  2.0613778742400708e+00  -1.8713184672654670e+01  -1.8807862848198234e+01  -1.2205428467820568e+01  -8.6902301967016822e+00  2.8361993881659303e-01  7.3749901017789279e+00  -4.9274754525554485e+00  5.2732285287985343e+00  9.8894835545565591e+00  -7.9711917019759051e+00  1.0529789310194586e+00  -5.9280250719781336e-01  9.5458641454122573e-01  -1.3940357740018021e+01  4.4271813772422881e+00  -1.4457519716228152e+01  6.9902683802437346e+00  -3.9148877405661127e+00  9.1105804172899383e+00  -1.2226389267207201e+01  6.7797175032414791e-01  1.6231745807300699e+00  8.8817265454685543e+00  6.5082410447145529e+00  -4.1500883897419714e+00  1.5264087907825813e+01  -7.8954563683608214e-01  4.7407608540083945e+00  3.2659856362297548e+00  4.5097580095959184e+00  1.1326031798875302e+00  3.5054979615316371e+00  -9.3618342350757597e+00  3.8225630511245172e+00  4.8275157954105596e+00  2.5946313614206780e+00  3.9400435404178964e+00  -1.8645555532793181e+00  -7.3604647853449257e-01  8.2933711702708912e-01  -1.3199429334154109e+01  -5.2269175247558985e+00  9.5713770757704744e+00  -6.1865722078757894e+00  -8.4155986688153241e+00  -3.3269394732232955e+00  -9.2574749210818776e+00  -8.3451709337507332e+00  -1.0436162390663434e+01  -1.3979770733572511e+01  1.1301892814929236e+01  1.2016534445961463e+01  9.9346041123658733e+00  -1.0662286955521081e+01  -1.3354193280645859e+01  1.2341726339507350e+01  3.4905520891549497e+00  -6.1364087128215195e+00  -6.6371670325107797e+00  5.3886853006326039e+00  -3.8600421506819473e+00  -8.6800760636288032e+00  6.6485309266829329e-01  -1.6170148781107493e+01  -1.5641448592586272e+01  7.9775796857847308e+00  -4.2447285209319228e+00  -5.0338286282483589e+00  6.5293840019089702e+00  8.3414105660380820e+00  -4.0010382644616183e+00  -1.5939894626461484e+01  6.5018809497169263e+00  9.9275184640074716e+00  -1.3855024484763856e+00  -3.3914607192139279e+00  -7.5698473060589944e-01  2.1741906767769672e+00  -4.7348209089129742e+00  -1.6981135498373632e+01  -6.0618465823995482e+00  -1.3520757707366626e+00  -9.0470721998179382e+00  4.5508503171882753e+00  6.6918723024848825e+00  -8.1209438405638963e+00  -8.0294405489954757e-01  -2.2167564874403145e+00  -5.7895661508109320e-01  -1.1784043191602194e+01  5.6305272380772289e+00  -9.7000744290949381e+00  -1.5156998485736606e+01  -1.4979769683433409e+01  -1.1721885755046481e+01  -8.9031098082716653e+00  6.8436485799133724e+00  -4.5095317406582831e+00  -4.8214135389983737e+00  9.2361564172503972e+00  -2.8921965125501705e+00  -1.3375222805601597e+01  3.3486091556701663e+00