<?xml version="1.0"?>
<VTKFile type="UnstructuredGrid"  version="0.1"  >
<UnstructuredGrid>
<Piece  NumberOfPoints="4961" NumberOfCells="9546">
<Points>
<DataArray  type="Float64"  NumberOfComponents="3"  format="ascii">0 1.5 0  -0 0.09117947244826481 0  0.0220162612375116 0.1293127555043441 0  0.05279126660105127 0.1634918616050268 0  0.09000000000000007 0.1905255888325765 0  0.1320162612375116 0.2092324335849338 0  0.1770037380811163 0.2187948169810202 0  0.2229962619188838 0.2187948169810201 0  0.2679837387624884 0.2092324335849338 0  0.3100000000000001 0.1905255888325765 0  0.3472087333989489 0.1634918616050267 0  0.3779837387624885 0.1293127555043441 0  0.4009800006813722 0.08948206147667603 0  0.4052662851173224 0.07629023443250138 0  0.4200599930048062 0.1082663100071745 0  0.4475409466961425 0.1444168863592189 0  0.4821507162738997 0.173814689612947 0  0.522270987378618 0.1950851111615262 0  0.5660257807239194 0.2072335697337205 0  0.6113691708029376 0.209692016908736 0  0.6561809510911363 0.2023454984290368 0  0.6983657725469559 0.1855375293336648 0  0.7359511198041838 0.1600540315768036 0  0.7671795437981852 0.1270865851906907 0  0.7895690044779959 0.089875012069959 0  0.7989002782867461 0.1116194513821486 0  0.825485631780658 0.1498156710261111 0  0.8592156240140376 0.1818784194956707 0  0.8987093451417441 0.2064950441012706 0  0.9423499175804944 0.222657737339227 0  0.9883506911670961 0.2297047966493422 0  1.034828388826053 0.2273477145954656 0  1.079880208154309 0.2156829903938285 0  1.121661722375201 0.1951881792237927 0  1.158462391387408 0.1667023410626976 0  1.188775591477674 0.1313916894718022 0  1.211360296672653 0.09070184667606328 0  1.225291886488074 0.04629865962039181 0  1.23 0 0  1.38 0 0  1.384807527838563 0.04574057197990705 0  1.399019999318628 0.08948206147667601 0  1.422016261237512 0.1293127555043441 0  1.452791266601051 0.1634918616050268 0  1.49 0.1905255888325765 0  1.532016261237512 0.2092324335849338 0  1.577003738081116 0.2187948169810202 0  1.622996261918884 0.2187948169810201 0  1.667983738762489 0.2092324335849338 0  1.71 0.1905255888325765 0  1.747208733398949 0.1634918616050267 0  1.763158635297163 0.1457777009465727 0  1.8 0.1732050807568878 0  1.842639353457782 0.1915979024630978 0  1.888371034217905 0.1996616316542537 0  1.934729635533386 0.1969615506024416 0  1.979215953207831 0.1836432213760548 0  2.019431718340557 0.1604246385510087 0  2.053208888623796 0.1285575219373079 0  2.078726528064682 0.08975983604009244 0  2.089496128668151 0.06017060156551748 0  2.099019999318628 0.08948206147667601 0  2.122016261237512 0.1293127555043441 0  2.152791266601051 0.1634918616050268 0  2.19 0.1905255888325765 0  2.232016261237511 0.2092324335849338 0  2.277003738081116 0.2187948169810202 0  2.322996261918884 0.2187948169810201 0  2.367983738762488 0.2092324335849338 0  2.41 0.1905255888325765 0  2.447208733398949 0.1634918616050267 0  2.457084733682728 0.1525234520934048 0  2.4821507162739 0.173814689612947 0  2.522270987378618 0.1950851111615262 0  2.56602578072392 0.2072335697337205 0  2.611369170802938 0.209692016908736 0  2.656180951091136 0.2023454984290368 0  2.698365772546956 0.1855375293336648 0  2.735951119804184 0.1600540315768036 0  2.767179543798185 0.1270865851906907 0  2.790590838130901 0.08817671132765556 0  2.805090316699118 0.04514379244431505 0  2.81 0 0  3 0 0  3 1.5 0  0 0.7956998320486358 0  0.4110904441558352 0.08887894789033324 0  0.7773699356874649 0.1101500221202465 0  1.5 1.5 0  3 0.75 0  0 0.4434396522484503 0  3 0.375 0  0 0.2673095623483576 0  0 0.1792445173983112 0  0 0.135211994923288 0  2.25 1.5 0  0.75 1.5 0  1.807676614587897 0.8837271123414687 0  1.04553857344641 0.8979441530181422 0  2.403437242208115 0.8132876225209357 0  0.5070864579510219 1.00719278150819 0  3 1.125 0  1.338035405010484 0.5883821138073757 0  2.625 1.5 0  0.3818338799394321 0.6099209340690734 0  2.067950237167102 0.5767429460037152 0  1.428016626639016 0.9663701540160734 0  1.875 1.5 0  2.136976695697423 1.114248364898298 0  1.125 1.5 0  0.375 1.5 0  0.7837785056474272 0.5924157926009261 0  2.621900904970652 1.121900904970652 0  0 1.147849916024318 0  1.717071692555337 0.550779009763445 0  1.678619011272733 1.204235418149387 0  0.8184015011321764 1.160011833453945 0  2.690771901920515 0.5625 0  1.191553529739931 1.18494431212041 0  2.361743998733192 0.516240498397431 0  2.727335050325185 0.8509414958930873 0  1.061120194703906 0.6196995992969355 0  0.269244960297408 0.8637990218922467 0  0.7609530458041533 0.8768664729047809 0  0.5625 1.286150286226427 0  0.2788879438654684 1.226607136693913 0  2.077535333020466 0.8486969269297693 0  2.4375 1.312474598220077 0  2.809426100237187 1.309426100237187 0  1.544358239139601 0.7389704993474611 0  1.434454912167138 1.210530519498476 0  2.380335199591509 1.061271835208851 0  1.926191456889599 1.252931474193008 0  0.5486378118088926 0.7757115443742588 0  0.5753328044103648 0.454959652232189 0  1.281333603460298 0.3634530521588742 0  0.9959109141311655 1.308173392725312 0  1.507364216928931 0.4358170942512657 0  1.21812632380771 0.7680504611018459 0  0 0.6195697421485431 0  1.3125 1.5 0  0.2892140007400885 0.4197188740688536 0  1.924109453869066 0.4139433366638808 0  0.9329747065756857 0.4375180073994652 0  2.243231692495831 0.684324343130167 0  2.0625 1.5 0  2.124178136191116 0.3821183579116478 0  1.923364695744858 0.7179848099571996 0  2.233034933769442 1.295537230099697 0  1.961794510294921 1.014032929092127 0  0.9133498533613748 0.7509830595402348 0  0 0.9717748740364769 0  0.1875 1.5 0  0 1.323924958012159 0  1.227107007305785 0.9862124750220198 0  1.616617139708145 0.9194004298184476 0  2.811636610329211 1.039737091854792 0  0.1901803394569171 0.5855957240372172 0  2.511165533602297 0.6467174115519351 0  2.536466024168012 0.9507486861843897 0  0.1866521719860137 1.047526440960541 0  2.74946330463778 0.3751246081287475 0  2.543804048982231 0.4145708923164018 0  0.9375 1.5 0  2.4375 1.5 0  0.5625 1.5 0  3 0.5625 0  1.6875 1.5 0  3 0.1875 0  3 0.9375 0  3 1.3125 0  2.8125 1.5 0  1.010044310702206 1.096645863828023 0  2.623488142128434 1.314011651358178 0  2.229558763998408 0.9540962470011799 0  2.845385950960257 0.65625 0  0.7525337220569124 0.4130199536593896 0  1.10537722367743 0.3921278680533664 0  0.6842290971134891 1.039833940778862 0  0.7386374643770518 1.32083913541365 0  1.553387564684306 1.08522930563603 0  1.788789291239656 1.06235950910253 0  1.559809215736361 1.334301807720895 0  1.750410104758408 0.7205088288478614 0  1.672011031024921 0.3842266692686779 0  1.77867146649739 1.349246747510312 0  1.21875 1.355246746101045 0  0.8723426006985372 1.001666865795386 0  1.380631426145093 0.7466576340788873 0  0.4259246536592668 0.3283409344703117 0  0.3444360723462823 1.008028502358495 0  0.6161474109915657 0.6198433096250735 0  0.4265019066463465 1.151756411601508 0  1.403034104827827 1.367717620859348 0  2.874684993382777 0.28125 0  2.874778249279309 0.46875 0  2.071314369495706 1.334001876948522 0  2.3 0.3730371416193449 0  1.322682484320052 1.105857305698365 0  1.563127563616163 0.5828461597844022 0  2.559040610931566 0.7958017532902765 0  1.213306121383676 0.5002133671656324 0  1.916121887065227 0.5659454196943852 0  2.207677378621353 0.5116761937353096 0  0.1257028237453774 1.235887437018238 0  0.7203062975228639 0.7304636720840537 0  0.3921145397364951 0.7663844669080319 0  2.70905347612285 0.7067207479465436 0  2.87968965213058 0.84375 0  0.1396742765227637 0.3714373577111671 0  0.1209675020841686 0.8837373530425563 0  0.1396318055029159 0.7309656161457982 0  0.4039274761094683 1.336239793581983 0  2.676470777350768 0.9877614171414461 0  0.2098223519481562 1.355491059017463 0  0.6161949108813681 0.9073080762684851 0  0.6728981805985057 1.187471545812503 0  0.4313243650936899 0.473428383024358 0  1.317579957488075 0.8752219089473544 0  1.05247475519209 0.7587740171666131 0  0.9218858728134471 0.6117854803862035 0  2.343741823603972 1.201704901656183 0  2.483180588903391 1.163054990844907 0  1.336494261441537 0.237261632693729 0  2.096334636915305 0.983917300563715 0  2.059942810014369 0.7131710752499992 0  1.940957218750955 0.8535106616369695 0  0.2735884026449029 0.6956028768230409 0  2.3791553829517 0.6794620539851567 0  2.443566922502795 0.3224565874575337 0  2.21140571429892 0.8179437442036444 0  2.863880028189143 1.175018869261394 0  1.212122991296861 0.6341965806889284 0  0.8702381850023826 1.37471255674248 0  0.4252003220264352 0.89843828480276 0  2.714126143737636 1.217200861470203 0  2.34375 1.406237299110039 0  2.71875 1.406237608026668 0  2.903224894283775 1.403224894283775 0  2.53125 1.5 0  1.444637821860123 0.3169971434781329 0  1.307097209138961 1.253815337580837 0  1.806074818262501 0.3310941379078186 0  0.09375 1.5 0  1.96875 1.5 0  1.467196512253796 0.8429542418758076 0  0.7811182225539175 0.2860230046382459 0  0.8880470276332622 0.8755399020562793 0  2.004554624687214 1.142507703833496 0  1.901808674873915 1.376717053991818 0  1.80956117606876 1.192202387775541 0  0.65625 1.5 0  2.256163989601168 1.076312782066936 0  2.35728348455407 0.9340561611988477 0  0.5508073343087652 1.161974855816299 0  1.822201850254356 0.484799098822588 0  0.6415475671733072 0.3394071993736185 0  0.6854011703162045 0.5171310296285601 0  2.010601404748645 0.3128962050875828 0  1.458109478391155 0.6494112449225909 0  1.556659288882675 1.21212759481645 0  2.15625 1.5 0  1.102952541966123 1.010721102324488 0  3 0.09375 0  2.905 0 0  1.698833571793874 0.8302602504158462 0  0.1128136071602732 0.4908067814983783 0  1.375215724596343 0.4593979824254396 0  1.667188501011557 1.033651962891267 0  0.5152717989473731 0.5573202673988191 0  0.4756630816937197 0.6823252715484635 0  2.485944291803511 0.5248037876852512 0  0.609375 1.393075143113214 0  1.657554629504312 0.6506084627130724 0  1.180547956106694 0.2992004577305749 0  1.040994897946075 0.4976964206623483 0  2.883588023402782 0.1625217501240843 0  1.437965738677728 1.09476840787
[...]
<PointData  Scalars="f_66"> 
<DataArray  type="Float64"  Name="f_66"  format="ascii">1.0307955842215060e+01  -3.0624336982671036e+01  -2.8677822356753001e+01  -2.6544249708059681e+01  -2.4396499508953706e+01  -2.2755228920213106e+01  -2.2433982172531238e+01  -2.3439624601523651e+01  -2.4488233633724018e+01  -2.4895355701516422e+01  -2.4624383478248216e+01  -2.4321073135708566e+01  -2.4391164264571426e+01  -2.4427241741286601e+01  -2.4025742720145519e+01  -2.3185991578834585e+01  -2.2614776472761839e+01  -2.3018880835263595e+01  -2.3605219707504215e+01  -2.3680855011272097e+01  -2.2963865861667742e+01  -2.2104861273775711e+01  -2.1863526501859671e+01  -2.2239934295409277e+01  -2.2554855271240150e+01  -2.2405283053685263e+01  -2.2332431329365971e+01  -2.2508685334468883e+01  -2.2455047701263929e+01  -2.1511899408465119e+01  -2.0128530724963191e+01  -1.9076617583437613e+01  -1.9526143299330030e+01  -2.0754400432354100e+01  -2.2282231363941289e+01  -2.3230008524725434e+01  -2.3899965913026893e+01  -2.4520411312414677e+01  -2.6042482184738645e+01  -2.2740467970532503e+01  -2.2491701038485861e+01  -2.1908709205477809e+01  -2.1450381828781154e+01  -2.1375917627746059e+01  -2.1146058866320587e+01  -2.0294949004180882e+01  -1.8806754374641098e+01  -1.7578830386071793e+01  -1.7544531748978638e+01  -1.8792594193400920e+01  -2.0731826305543549e+01  -2.1433164666740563e+01  -2.0391771952161729e+01  -1.9074444704655306e+01  -1.7533343905262011e+01  -1.6393351053923023e+01  -1.6762828129724088e+01  -1.8189003156598154e+01  -2.0004937245025641e+01  -2.2177053220526453e+01  -2.3402991331265227e+01  -2.2112285830484918e+01  -1.9920460486306105e+01  -1.7903015143283561e+01  -1.5743245855755491e+01  -1.4110692281049280e+01  -1.3444521360589865e+01  -1.3881137964571085e+01  -1.4764178885750724e+01  -1.4892992892846959e+01  -1.4720326678721047e+01  -1.4844058301330756e+01  -1.3636871677593971e+01  -1.1510619119082310e+01  -1.0096220572717996e+01  -9.8862744879592253e+00  -9.8800119011711249e+00  -9.2104910449182480e+00  -7.8629592964221882e+00  -6.1990057493172905e+00  -4.7565094811094104e+00  -4.1634704841356776e+00  -4.1496165417723416e+00  0.0000000000000000e+00  0.0000000000000000e+00  -9.4656940625225943e+00  -2.4350672657170065e+01  -2.2470249368771935e+01  1.3659095474817310e+01  0.0000000000000000e+00  -1.8651184988543175e+01  0.0000000000000000e+00  -2.3178233394836450e+01  -2.6303383015700341e+01  -2.8512981540062263e+01  1.1257800059174446e+01  9.1059576228450840e+00  -1.9497061864160516e+00  -3.7594142659269090e+00  -1.6958808530102985e+00  -2.5292120804984961e+00  0.0000000000000000e+00  -1.0525408170926834e+01  1.0202522049979766e+01  -1.3034676283500698e+01  -7.8359764601510289e+00  -1.0126397792280879e+00  1.2888969977688552e+01  3.7760532580123320e+00  1.1430396650119667e+01  9.6031404468352441e+00  -1.2191232784904571e+01  2.9727115461018472e+00  -8.2276110298853039e-02  -1.0059713281857524e+01  5.3166916412155683e+00  2.1537833049321251e+00  -3.4558919299368411e+00  3.7488219128006288e+00  -7.2149442742827121e+00  -3.7870470278747703e-01  -1.0601784131872293e+01  -6.8606651726051959e+00  -5.1102965234718516e+00  4.6811876784851254e+00  2.5100551998609788e+00  -1.9722310574973123e+00  7.4032825691124549e+00  3.6965026119844238e+00  -6.1771661591284959e+00  4.9654241685259368e+00  2.6350164529966973e+00  6.8099992243658525e+00  -8.2952180837067306e+00  -1.6391032293874197e+01  -1.6299031792543257e+01  6.3087478965719637e+00  -1.3739175300726446e+01  -6.4664956596257825e+00  -1.4119580077331022e+01  1.0900279033874980e+01  -1.8170028104486036e+01  -1.2308461690106325e+01  -1.5531120999861688e+01  -4.7109530042059449e+00  1.3753401734234515e+01  -1.1817897750290227e+01  -5.3494948899343218e+00  7.6711260712304359e+00  1.3734375728539485e+00  -7.8066958077811179e+00  -4.7872851589395138e+00  8.3741532551970987e+00  4.5574645844724770e+00  -1.0689583194529295e+00  -1.6359359503476638e+00  1.0808269661592094e+00  -1.4277940851761803e+01  -3.8517360270146130e+00  6.9744945836672867e-01  -2.3195023112332622e+00  -4.7018534979288047e+00  -7.2430002263851332e+00  1.1898503567819214e+01  1.2729241174197531e+01  1.1019466020584593e+01  0.0000000000000000e+00  1.1687500557849683e+01  0.0000000000000000e+00  0.0000000000000000e+00  0.0000000000000000e+00  6.2903771225078984e+00  1.0813094897384066e+00  6.1048079064424075e+00  5.2802597068496537e-01  -1.2636753423308955e+00  -1.6823527589792246e+01  -1.5997012054788204e+01  -1.2240570439794303e+00  5.9483378672885854e+00  2.1856082188568382e+00  2.1542705509789362e+00  8.2815898593510902e+00  -5.9216996995229323e+00  -1.4254491894076365e+01  9.0371987611191553e+00  8.1001336755740798e+00  -1.6641896930400064e+00  -6.5041916403684370e+00  -2.0040711409731312e+01  -2.9396295700424835e+00  -1.2046400127807290e+01  9.3893796822971376e-01  8.7355624429739080e+00  -2.8731125873369687e+00  -1.9290903173619707e+00  8.7903447083182371e+00  -1.0627941468774999e+01  2.1257631050962718e+00  -9.8928816314244354e+00  -1.4568979306178111e+00  -1.3078426323257837e+01  -8.8273846533863836e+00  -8.4090946848223407e+00  2.4344534293771463e+00  -8.9180983426728808e+00  -9.0015646612210070e+00  -1.8132228445795693e+00  -1.7416446809800293e-01  -1.9812818730783427e+01  -6.7720178693130668e+00  -1.0702755398984646e+01  5.5378938113903082e+00  1.0431852842997591e+00  5.6311598696333505e+00  -4.7596633743407022e+00  2.4638389255696729e+00  -1.6362978533648217e+01  -3.5441528592901035e+00  -7.1898349653298315e+00  -1.1246977679409378e+01  5.4310439977662606e+00  4.2560039924559172e+00  -1.9342485970593202e+01  9.4229134500649570e-01  -4.9222680776130359e+00  -2.2588602739297827e+00  -1.1182034465142289e+01  -4.1089455021566668e+00  -1.0350835539712236e+01  -2.2077105881365160e+00  1.6681861099147706e+00  -9.7813947747136609e+00  7.7390116070995472e+00  -5.5265620524574901e+00  3.6626651529546055e+00  9.9790954979570543e+00  6.9306609953537244e+00  2.8772426743605561e+00  9.8481901071115292e+00  -1.7077396386123635e+01  5.7299578521405889e+00  -1.5002495448568638e+01  8.6480856778310997e+00  1.1579131633022126e+01  -3.8998198656453167e+00  -1.9830998217248595e+01  -4.7730038390456198e+00  4.3233435697517617e+00  9.7123112320079130e+00  5.2502687677206508e+00  1.0767953017541133e+01  2.9920033009109566e+00  3.1450098952395589e-01  1.5090239015779836e+00  -1.1165244073368145e+01  -1.9178563853057906e+01  -1.4428113042733175e+01  -1.4162279603474284e+01  -8.6359382202949657e+00  5.2723238036680096e+00  1.3220786266850762e+01  -8.0210766583082482e-01  0.0000000000000000e+00  -3.6433535897484259e+00  -3.5134333832424529e+00  -1.6964988887223555e+01  -1.3617009512231105e+01  1.2125639761898228e+00  -1.3960124301566324e+01  -1.0894797305034368e+01  -6.0009556262840311e+00  7.6093955620388396e+00  -7.9096131820669706e+00  -1.8112789607219383e+01  -1.3662393371197727e+01  -3.0162553811653328e+00  2.1407502309959359e+00  3.9739357529074018e+00  3.4190288392275576e+00  8.2838848671906931e+00  3.3955364569331867e+00  6.1165485052745741e+00  -1.6242925959924268e-01  8.6326701641789718e+00  -1.5992747707812462e+01  -7.3344784098818350e+00  -1.1991648867784743e+01  4.9388681617978563e+00  5.2469048684061610e+00  7.2645585132611936e+00  9.5758093941031532e+00  -1.1410309034648332e+01  2.3225668533830710e+00  -8.3742112337812968e-01  9.9676549078207941e+00  -3.8708744485619606e+00  -1.0055471317524496e+01  -1.4867573111122629e+01  -1.9140392901053477e+01  -7.3194831237396816e+00  -6.7193851648177622e-02  -1.4558017359678459e+01  -1.7488584691876842e+01  -1.8387544661416879e+01  3.1034403935300409e-01  6.7428860795574401e+00  5.0487855110989690e+00  -2.4343601939622914e+00  -4.4092768520945114e-01  -2.0910313483251308e+01  -1.5594779467579665e+01  5.9879528290898154e+00  -8.8726815309053340e+00  9.1311362441325734e+00  -5.2861087094033392e+00  -4.9184969561054670e+00  8.8945474879491637e-01  -2.5275113309838901e+00  7.5691637997655437e-01  4.5461923578629643e-01  1.9688704378923527e+00  -2.3421716027384356e+00  5.7847392651121989e+00  -2.8032559111489599e+00  -5.9009804531182057e+00  -5.8951163463911698e+00  -8.2484386739698190e-01  -1.4791509563999581e+01  -7.1914328606238014e+00  7.6249494806274285e+00  -9.8832515139539172e+00  -1.2614851947114566e+01  1.1892197949349745e+01  -7.9769587563231559e+00  -9.7938346896600645e+00  -8.5609546546381150e+00  -6.8101675671401773e+00  -4.2087831688176216e+00  1.1369902075301250e+00  -1.0555568782275171e+00  -1.6682468634767378e+00  -4.0849523544780991e-01  -4.5851939567436167e-01  2.6613670167252890e-01  -3.3841200163171417e+00  -4.9327194364278517e+00  -5.2028903312434072e-01  0.0000000000000000e+00  -5.4792145257568761e+00  9.9834515468846305e+00  8.6684884805954692e+00  -2.7783683034330720e+00  -1.1676446447359599e+00  -5.6930122943732826e+00  -6.9139995893474708e+00  -9.2043165219844099e+00  1.0355854386901211e+01  -1.7185637855168647e+00  -4.0227784698081468e+00  -1.1657132674267714e+01  1.7474750972764124e+00  -1.3599263849942682e+01  -1.6242398334563571e+01  -1.4603548669520388e+01  -2.1732900269239472e+01  4.4758277526102557e+00  -2.4735371558598831e+00  -2.0079297444511319e+01  6.9775146677997713e+00  1.8370297639598856e+00  -6.4674152755608960e-01  -4.9111931944574510e+00  3.0825950445723826e+00  -9.0144771767732763e+00  -9.6028603346573291e+00  -5.1783473551710184e+00  -2.9173177705189595e+00  0.0000000000000000e+00  1.0199752383606915e+01  1.2695832457449377e+01  1.1289430973844377e+01  0.0000000000000000e+00  1.1506955685103488e+01  1.2949680323400612e+01  1.4038409711593056e+01  0.0000000000000000e+00  0.0000000000000000e+00  0.0000000000000000e+00  0.0000000000000000e+00  4.1413369755946787e+00  1.0713703384931691e+01  -8.5492852814743314e-01  7.9583478315670355e+00  5.1064025493134926e+00  -3.6995197823645931e+00  3.0545436806640156e+00  -2.0338401093513211e-01  -9.2026865299052467e+00  -8.1184541028505475e-01  9.2607021654096133e+00  2.0050389320943993e+00  4.9744799497598375e+00  -5.6611672857318860e+00  -1.6515185886986011e+01  -3.3919657117392190e+00  -3.4775232101753164e+00  2.7000585999513271e+00  3.7488789572119359e+00  -2.2260799272704155e+01  -1.6780161203461791e+01  -1.1881477374286904e+01  4.7802408030966461e+00  3.7830416774686182e-01  -1.3163383814851768e+01  7.3776293220528828e+00  6.9198212103636960e+00  -2.4769731335862675e+00  1.0059684697214433e+00  1.2074476954903286e-01  3.2759775509891305e+00  5.5463398464073155e+00  8.0733595454098737e+00  -2.1402209073770635e+00  8.5766819812870709e-01  -1.1806493532328627e+01  -1.8016941706711599e+01  -1.5403419732914115e+01  2.5639188432610716e-01  -1.2296619002499296e+00  -6.5319692432804279e+00  7.1210760779485867e+00  7.9535335295668341e+00  1.0026671066741292e+01  6.6879263720902706e+00  -1.6389007211362888e+01  -2.0847993228383668e+01  7.5868303036348568e+00  -7.1075645464124699e+00  2.2520634674000064e+00  -1.0397711281902525e+01  -8.8462479063978847e+00  1.0123569672410314e+01  -1.3452711449609467e+01  1.6565387009013988e+00  -2.1915269446136858e+01  -7.4676223414866589e+00  8.5758388884034851e+00  1.9051894319725933e+00  -7.9852660366035604e+00  3.5264113931730461e+00  6.0150159557564886e-01  9.9109335964488547e+00  1.1094648794246869e+01  -1.3869673674986057e+01  1.9011393786095314e+00  -3.7304956332524837e+00  -3.3771701745237475e+00  -1.2253046815282556e+01  -1.4217600459890962e+01  -1.5914837816879757e+01  1.0345838649789684e+01  -9.0949258479261186e+00  -7.0766192112210842e+00  -1.6199372912089022e+01  8.5283783068372081e+00  6.2518043532751690e+00  -1.6530215799713396e+01  -1.2630193262895014e+01  3.7355213314078943e+00  7.3373225505377491e+00  1.0991177900803640e+01  8.0829736561138539e+00  -5.2744315287892691e+00  1.4649743947767100e+00  -3.4590936335680805e-01  -1.3011926616109477e+00  -3.3824220465981707e+00  -1.2090393173824470e+01  -1.9696163715599596e+01  -2.1133520479444915e+01  6.0358315930474946e+00  5.9985987612018841e+00  -3.2277720494657074e+00  -5.7093811035562858e+00  -8.5659798374295342e+00  -6.6095293449827990e+00  -2.1987661382648856e+01  -1.7911480372328437e+01  1.1018307439851657e+01  -1.2984200395957044e+01  -5.1124374991682195e+00  -3.1629033807269722e+00  5.2950701135380462e-01  -1.3929014182761417e+01  -9.3031326107966485e+00  -2.3938367405254091e+01  7.7274092775202110e+00  -3.7053129138035881e+00  6.6333371896813338e+00  -1.1765941173876971e+01  -1.5566866068177463e+01  -6.3425649277599998e+00  -3.7540159687481571e+00  -1.0061948689316116e+01  -7.8857019051048054e+00  -1.1777751484622295e+01  -1.8889361575965996e+01  -2.1292070250009605e+01  -1.7327448767675957e+01  -1.1005255379175683e+01  -1.7531474061309953e+00  -1.5938584437529584e+00  5.7508183759976390e+00  -1.2041186516468320e+01  2.7036404470124853e+00  -6.1095007702608917e-01  -1.1100032008635340e+01  -1.9492353009972195e+01  -7.6567124508862294e+00  -9.0124091570160889e+00  -1.2785102228405455e+01  -1.1951290904244466e+01  -1.9239383911540795e+01  -1.1728811914568384e+01  2.1791965339758939e+00  1.1184406768649335e+00  8.2009460245401855e-01  3.3906217401244141e+00  2.7032014042852848e+00  -4.4777636509319532e+00  -1.2022126894316694e+01  4.3620275978504752e+00  4.4387334417804312e-02  -2.9825413860857852e-01  -2.0874779538376924e+01  -7.1016879042315333e+00  -1.0550039247570979e+01  -1.5897253127309744e+01  -6.9543830494441252e+00  -1.0358873997223021e+01  -1.7321650552137996e+01  6.4457738762946297e+00  -1.5066628309058213e+01  -2.9801502191216080e+00  -1.4119715014307630e+01  -2.0685288269138933e+01  -1.8765477253928161e+01  -2.8207938102352332e+00  -5.7875016151203846e+00  -7.4391050835869938e+00  3.9349006110411415e+00  -1.2450278137792484e+01  5.1900526139878238e+00  3.1538737880348267e+00  -1.8122669636475880e+01  -1.7411982462722008e+01  3.1005747051610375e+00  -1.9716464700260161e-01  -6.3513302911024168e+00  -5.2808587144286170e+00  -7.5393171559313839e+00  3.4115497645591519e+00  -1.2264918715986697e+01  -3.5792795194928400e+00  7.2839190395611828e+00  -8.4133102890294360e+00  4.0879853824645300e+00  4.0825481120598388e+00  4.9438491528208086e+00  7.4965303651550350e+00  -2.6610878315150197e+00  2.7099850509524848e-01  -1.4442791472279287e+01  -1.0570081616895648e+00  4.4122124465778754e+00  -1.8211405131582680e+01  -1.4748388516734009e+01  6.5376587401389648e+00  4.1105166592233964e+00  8.0131558250022572e-01  1.1508391071903263e+00  8.5471550592188106e-01  -2.6956439987341687e+00  -4.8596736160884753e+00  -1.1071975294330429e+00  6.3609240117175530e+00  -2.7866364805258179e+00  -7.3803840020562781e+00  -1.8038404169888629e+01  -1.2845356526242616e+01  -4.3898070497410471e+00  -2.1310792825075580e+01  -1.2927746478226187e+00  -1.7511951186371483e-01  -1.0112037597983502e+01  -1.0603757373163774e+00  -8.6519244756546438e+00  -1.4098088374645468e+00  9.8665144050940192e+00  6.5259446534207273e+00  -2.0260290846877353e+01  -2.6400608566249845e-01  8.8623834474116929e+00  1.9683167615996440e+00  9.9530233220168522e+00  -4.7134006739582102e+00  -6.8337523445255224e+00  9.1607963495945377e+00  1.0124751470689597e-01  1.0918908554923441e+01  -1.7337296705152568e+01  1.0072867212061649e+01  -9.5539753276098995e+00  -8.8997564756054075e+00  -7.4890294538128774e+00  -1.2444035771945844e+01  -4.0292331555599485e+00  -1.7794588263807551e+01  7.9934180329630522e-01  -1.5460284195490845e+01  6.5132827889517575e+00  -1.1918275372114492e+01  -7.3130263297425369e-01  1.2707417903545462e+00  -4.7356796350474593e+00  -2.0728392974093730e+01  -1.7621329742427026e+01  -3.0988759568350401e+00  9.0885133411361192e+00  8.4905171828136226e+00  -3.3717492085626857e+00  -1.0754715813559018e+01  -2.2851445283407042e+01  -6.0941276858789484e-01  -2.6308809704391520e+00  -3.8441546799100821e+00  -6.4115916284220109e+00  -4.9985785503345257e+00  -1.9644261457490366e+00  1.0799105189248618e+01  -1.5505341871229170e+00  6.0272637329806611e-01  -5.1783403282144402e-01  -8.7264592189665890e+00  -4.5885973645036895e+00  -2.8783181546071148e+00  -3.9570144220945127e+00  -1.5817614667479720e+01  -9.1238779555296841e+00  -5.7116388393265893e+00  -4.9061034785830184e+00  -1.4808804965662018e+01  2.9783449996394071e+00  4.5459717815997163e+00  -1.8643482814137935e+00  1.5897334783798984e+00  -1.9100964086957365e+01  -1.0166001675462073e+01  -1.1835502878471287e+01  2.9535621306931161e+00  4.5166655194305374e+00  -4.5410016857358046e+00  2.1717838111455651e-01  -1.3175866263815957e+01  8.9336620589998450e+00  -8.1067574052384810e+00  -1.6895274151695039e+00  -3.3875408731600354e+00  -2.7736109291254722e+00  -1.7848591220232020e+01  2.7990100675785068e+00  -1.2995179344888109e+01  -1.3037572212123690e+01  2.5580114165950012e+00  1.1167071124586592e+01  -9.7991466786940613e+00  4.5420285490585988e+00  4.4611671016584600e+00  1.3319690996708806e+00  3.7497662348609158e+00  4.8165824259557253e+00  1.1305252360509167e+01  7.0041200237132344e+00  2.2344667283004762e+00  9.2987649588710708e-01  2.8934776720502793e+00  4.6303346202422926e+00  1.0646933296003130e+01  3.7385879966970470e+00  5.5721178260213327e+00  -4.9818708553140922e-01  -1.6429123684782496e+01  -9.1136855779021815e+00  -1.5644308494357199e+01  8.2277503511942509e+00  6.5248596678111008e+00  -2.5471935599379556e+00  -8.0653005150766255e+00  -9.0213309918992071e+00  5.1334235235531835e+00  1.2929472243252192e+01  1.4554895201314941e+00  3.7506329264564997e-01  -7.0602657439975891e+00  -1.0473169450706553e+01  5.4080344074685971e-01  -2.0551705000857751e+01  -2.0951212572751771e+01  -1.3675193832607157e+01  -1.0170254558709830e+01  -1.1569147700457978e+00  5.7587661276831170e+00  -6.3986103212867933e+00  3.7389590928298522e+00  8.3434893179852736e+00  -9.5777012720211339e+00  -4.4112950164875353e-01  -2.0808321451723546e+00  -4.9203423279203906e-01  -1.5469846097230306e+01  3.0535325494326373e+00  -1.6000838056237811e+01  5.4463223205651188e+00  -5.3405813160845605e+00  7.5283745435495923e+00  -1.4189316020518769e+01  -7.2441313538239960e-01  6.6469118825270956e-01  7.3210807267668576e+00  5.0388214195973919e+00  -5.6267267743339557e+00  1.1664456619260537e+01  -2.2538312100554001e+00  3.2675527540092664e+00  1.7390620506953895e+00  2.8505719554082938e+00  -3.5184378582455622e-01  1.9909214919767284e+00  -1.0830921566641967e+01  2.3812995738856881e+00  3.4222515290019246e+00  1.2171648364137435e+00  2.4760122432690306e+00  -3.3159913479216696e+00  -2.0832029308735271e+00  -6.3353125288433088e-01  -1.5021002238836628e+01  -6.1538743741844817e+00  7.7783817681891980e+00  -7.6658092182667428e+00  -9.8941836831056946e+00  -4.7593977796107678e+00  -1.0692310412965931e+01  -9.7407905603775493e+00  -1.2411868992987371e+01  -1.5514596332876247e+01  9.4390834361929983e+00  9.7617460762825985e+00  8.2010716428554993e+00  -1.2138984282817683e+01  -1.4808749123985592e+01  1.0223858531435587e+01  1.9574108588985590e+00  -5.9183962042609997e+00  -7.5644103817225146e+00  3.9417300182157775e+00  -5.3102510585364104e+00  -1.0222870590511247e+01  -8.2501075116638445e-01  -1.8172835838214020e+01  -1.7308521829954437e+01  6.4215524821054029e+00  -5.7512094321605831e+00  -6.0091920884683310e+00  4.9950151016751168e+00  6.7674664287172472e+00  -4.1673450572423025e+00  -1.8474572199083383e+01  4.9901859628842367e+00  8.1746027396440244e+00  -2.8730662906909807e+00  -4.8585691147681835e+00  -2.2183334233695562e+00  1.3363209866825803e+00  -5.9625725235563882e+00  -2.0036572175878742e+01  -7.5520949576832779e+00  -1.4535937438914932e+00  -1.0242911762033993e+01  3.1859595977710335e+00  5.2030260643313540e+00  -7.2594304227048019e+00  -2.2865099892661958e+00  -1.9039735885390536e+00  -9.3541319271718371e-01  -1.3304442182964529e+01  4.1188106238670690e+00  -1.1267460684294567e+01  -1.6685252414705626e+01  -1.6832990821357249e+01  -1.3256098157335437e+01  -1.0299977571412997e+01  5.2687888155185840e+00  -3.3560931854607832e+00  -4.0595490367194422e+00  7.3834377799420592e+00  -4.3260378599905476e+00  -1.4916719