<?xml version="1.0"?>
<VTKFile type="UnstructuredGrid"  version="0.1"  >
<UnstructuredGrid>
<Piece  NumberOfPoints="5089" NumberOfCells="9865">
<Points>
<DataArray  type="Float64"  NumberOfComponents="3"  format="ascii">0 1.5 0  0 0 0  0.1029058182573948 0 0  0.1029058182573948 0.02393156642875577 0  0.1251489251828899 0.06631226582407952 0  0.1645395112957465 0.09350162426854149 0  0.2120536680255323 0.0992708874098054 0  0.2568064746731156 0.08229838658936564 0  0.288545602565321 0.04647231720437685 0  0.3 0 0  0.51 0 0  0.5220577136594005 0.04499999999999999 0  0.555 0.07794228634059948 0  0.6 0.09 0  0.645 0.07794228634059946 0  0.6779422863405995 0.04499999999999999 0  0.6899999999999999 0 0  0.8924037639192813 0 0  0.8924037639192813 0.02287028598995353 0  0.9110081306187559 0.06465637775217206 0  0.9450000000000001 0.09526279441628825 0  0.9885018690405581 0.1093974084905101 0  1.033991869381244 0.1046162167924669 0  1.073604366699474 0.08174593080251337 0  1.100490000340686 0.04474103073833802 0  1.11 0 0  1.502905818257395 0 0  1.502905818257395 0.02393156642875577 0  1.52514892518289 0.06631226582407952 0  1.564539511295747 0.09350162426854149 0  1.612053668025532 0.0992708874098054 0  1.656806474673116 0.08229838658936564 0  1.688545602565321 0.04647231720437685 0  1.7 0 0  1.82324056211084 0 0  1.82324056211084 0.02253860454731437 0  1.847611141284377 0.06045996594834066 0  1.888614812938137 0.07918571535047463 0  1.933233201040151 0.07277055962836147 0  1.967300282626494 0.0432512653964478 0  1.98 0 0  2.202905818257395 0 0  2.202905818257395 0.02393156642875577 0  2.22514892518289 0.06631226582407952 0  2.264539511295746 0.09350162426854149 0  2.312053668025532 0.0992708874098054 0  2.356806474673115 0.08229838658936564 0  2.388545602565321 0.04647231720437685 0  2.4 0 0  2.51 0 0  2.522057713659401 0.04499999999999999 0  2.555 0.07794228634059948 0  2.6 0.09 0  2.645 0.07794228634059946 0  2.677942286340599 0.04499999999999999 0  2.69 0 0  3 0 0  3 1.5 0  0 0.75 0  1.5 1.5 0  0 0.375 0  0 0.1875 0  0.75 1.5 0  2.25 1.5 0  3 0.75 0  1.803364316093307 0.8194216192460635 0  0.7085714285714286 0.7914285714285714 0  2.396697907928333 0.698796196655595 0  1.26039230397729 0.6323879781298929 0  1.125 1.5 0  3 1.125 0  0.375 1.5 0  1.418284719659703 1.05567510076647 0  2.625 1.5 0  0 1.125 0  2.4375 1.120298797465005 0  0.4140309460188812 0.4815551607069073 0  0.9375 1.133540466589862 0  1.875 1.5 0  0.4143011358073044 1.085698864192695 0  2.042557228405723 0.4764057674039468 0  3 0.375 0  1.615235786026768 0.4839120951620492 0  0.9172436665953028 0.4786128535408891 0  2.136144598898015 0.9367443054342734 0  2.712089662802327 0.5625 0  1.752709466448716 1.168812671476193 0  2.696461986964791 0.9012929362807449 0  1.307422665144653 0.3094324321200764 0  2.0625 1.24476578117044 0  2.446405755792607 0.3860402512509704 0  0.3158723471199726 0.7836709721106835 0  1.018921994797561 0.831404696897531 0  1.521099871135537 0.7571953762650785 0  2.718190509848388 1.189592528269884 0  0.665307193508031 1.225469494285917 0  1.199897701782483 1.230481185797768 0  0.2233959957266646 1.276604004273335 0  0.6649397520368477 0.3607836886074089 0  0 0.5625 0  2.685543358160364 0.3192521589045413 0  1.775621962986754 0.2975552026784072 0  2.025654700292002 0.7195245521041802 0  0.1961827192748887 0.9897295638426992 0  1.25729921569077 0.8746334216075233 0  1.534142212444284 1.264044413891354 0  1.624439414641745 0.9597398592303362 0  2.117668421489377 0.2641528949307972 0  1.945094170902585 1.053880768096555 0  3 0.1875 0  0.6251639682912251 1.002291403912492 0  0.719601375969486 0.5727782913443102 0  0.2313942916225519 0.3335511938861402 0  0.4687668770508729 0.274248243200137 0  0.5143238740412669 0.6811446824633056 0  1.829350286632844 0.5059917594077202 0  1.082379929992235 0.3249418149194327 0  2.540679850598416 1.305492850437689 0  2.282283153018704 1.279796495628565 0  2.355666841619378 0.9154942188580675 0  0.2114722061938988 0.5448236655965607 0  3 1.3125 0  2.8125 1.5 0  2.263750685400308 0.5173381079832993 0  0.4343085727049624 1.296611441170993 0  1.6875 1.5 0  1.016037518489582 1.324553740130353 0  0.846292314151325 0.9469220663180872 0  1.122827752751251 1.035495517001457 0  1.3125 1.5 0  1.306452909128697 0 0  0.8906638629565067 0.6773217378320744 0  1.517175933126145 0.2981487507037606 0  0.7996957920902151 0.2224603600775558 0  1.446370464174038 0.5785990786868803 0  1.689965192988266 0.6625083927402473 0  0.4864273298880485 0.870473805626289 0  3 0.9375 0  2.831315819563651 1.036097903808422 0  1.106384347284952 0.5163011422226527 0  0.5625 1.5 0  0.9375 1.5 0  0.1875 1.5 0  2.0625 1.5 0  3 0.5625 0  0 0.9375 0  0 1.3125 0  2.4375 1.5 0  2.196044825237544 1.113880351688974 0  2.210431846521007 0.695834380790271 0  0.8262236946704767 1.326155809103077 0  2.523003751809735 0.8349453583788917 0  1.882533682486712 1.30904671408086 0  2.845 0 0  2.813607095438526 0.1837681344374856 0  2.298597604800397 0.280431891689246 0  1.972062138207083 0.8834951655964545 0  1.943392101370151 0.2475417334111557 0  2.828663592588797 0.4267055109367558 0  2.803791026183859 0.7364868569598708 0  2.523250359922468 0.5585816735541729 0  2.602935827188279 1.053310414780935 0  1.692458045540587 1.328962813001376 0  1.232271555781778 0.154950218767993 0  1.36985844680238 1.21899526865025 0  1.785321775315372 1.004919979330962 0  2.534633602602767 0.2439507161942105 0  0.7651985499724481 1.092302611968735 0  2.637828969450683 0.71279922663893 0  1.100469689258933 0.6843495375675052 0  1.315800235513153 0.4755545830105288 0  1.405546076805209 0.1782543944119986 0  2.826282129872177 1.326282129872177 0  0.575884497984488 0.4967904868667201 0  0.1516233666565383 0.826056857120972 0  0.3483704262380678 0.6272257636119053 0  1.568331672486121 1.108640197801574 0  1.475101554186818 0.9082985267599337 0  1.868470483419324 0.6670273102604994 0  0.3467545185571825 0.9433646607171683 0  2.15625 1.373787484318285 0  1.41742615593433 1.367603819494743 0  2.854904919456998 0.8828609574219635 0  0.9476741986655126 0.255395459587152 0  1.267450600339273 1.091056105706913 0  0.114311143675241 0.65625 0  0.65625 1.37859278398136 0  2.170651243108527 0.4023187025489676 0  1.21875 1.380886352874642 0  0.3798992233573569 0.1593768045411093 0  0.9831420651531181 0.9956358347774316 0  1.456186685150796 0.4319140716985383 0  2.586721317152155 0.4269308613840649 0  2.863979293145301 1.178604739864835 0  1.658646098314701 0.8045749301224775 0  1.383553643956373 0.7098158224076794 0  0.154006438477797 1.138458423126247 0  2.856044831401163 0.5977865618779903 0  0.553876003596687 1.130313370813194 0  2.680231675041409 1.360526450748891 0  2.486056782242186 0.9722817331473952 0  1.891212003911469 0.3789027676568836 0  0.8138227412155181 0.37102502168449 0  1.064674644221452 1.192903489156071 0  0.6045358160041144 0.2320910326486189 0  1.194008126159845 0.4081242368041457 0  2.138311355076408 0.5770795769918613 0  0.134142636330111 0.2313017261983794 0  0.8460209454012837 0.8084258449188535 0  0.1293517554287885 0.4305045409359897 0  0.3205820557512212 1.373790064297892 0  0.2928933613730453 1.155196229839076 0  2.404969940572298 1.358123451328196 0  0.9933877375830629 0.5899302104012978 0  2.090287791367255 0.1211621925433303 0  2.904889173308855 0.28125 0  0.1246766077328953 1.375323392267105 0  2.302041695038792 0.7931069109810627 0  2.389228836127323 0.5648368411465005 0  1.886839219693261 1.174850198523801 0  1.96875 1.5 0  2.005259577028834 1.368575570359887 0  2.58746882374347 1.183267841227943 0  1.646515580921743 0.3486369169127919 0  1.980147904783248 0.5942137934419368 0  2.07740167257538 1.055304717195479 0  1.57300338334685 0.6065157750282059 0  1.59375 1.5 0  1.679678032322464 0.2100937046526968 0  2.252673654577562 0.9960348417811178 0  2.17832845930892 0.8178435559778986 0  1.78125 1.5 0  2.021596890434516 0.349571947542988 0  1.79926971381977 0.1752587163176004 0  0.503878860142697 0.3943984894172995 0  1.146622573165596 0.8060813049917908 0  3 1.40625 0  2.649807995179342 0.2020005420916801 0  0.3438742656237004 0.2790576170649142 0  1.546875 1.386334759531577 0  3 0.09375 0  1.320989371181643 0.9800954309611291 0  1.270074893254929 0.7536540780084714 0  2.70770359261854 0.4387759707667409 0  0.5606072232931772 1.296106034499297 0  0.7858104720553775 1.211812834033452 0  2.317237622700128 1.09958886094401 0  2.518665098961854 0.68166123334458 0  1.747777558052355 0.4158756118164814 0  1.683029275145126 1.069756268641544 0  0.46875 1.5 0  2.407758410849746 0.2048845882413086 0  2.396684507181482 1.235853070423643 0  1.919569286509587 0.7755948020085885 0  2.290752654053557 0.4002939182457882 0  0.2367853577638227 0.6856443876677092 0  1.644821718344275 1.219632237269969 0  0 1.03125 0  0.5821665354391095 0.7878606619613046 0  0.6422016866915001 0.674771619551397 0  0.2917070890414653 0.4458139506278615 0  0.7912018819596407 0 0  0.1045102716700244 1.249819735557644 0  1.151091219660612 0.9224858968529193 0  2.719174284445647 1.071883664029489 0  0.7216906855953001 0.918545393630683 0  0.2528020696803429 0.8787006417214202 0  1.726437981314609 0.9055659975386789 0  1.466273966174817 1.158744006060248 0  0.500278661176367 0.9948136517426003 0  1.114706325735654 0.2023659607018325 0  1.193213601931895 0.2926984867334158 0  0.9725372994821596 0.3724679154862157 0  2.214714190066689 0.1991474088029779 0  2.411776451427861 0.8179674328277735 0  1.997105232295531 1.153439169094244 0  0.497834479014996 1.390464488336983 0  0.4532232073331143 0.5868543641678674 0  0.4094710929462204 0.7215160819073434 0  0.2730945637736263 0.1927345247561336 0  2.091452909128697 0 0  1.88727127931541 0.9574017932976476 0  0.7331675361580886 0.4562359341911597 0  0.808798696301996 0.1107204599928528 0  2.794056136375906 0.2935548935723623 0  2.172174128810919 1.263645408055929 0  2.266351953173893 1.389929090293708 0  0.9205129738298803 1.252177379624563 0  2.58760749
[...]
<PointData  Vectors="f_60"> 
<DataArray  type="Float64"  Name="f_60"  NumberOfComponents="3" format="ascii">-1.2686509366307354e-04 -6.1845505852885197e-04 0.0000000000000000e+00  4.0920500854857824e-04 -9.5544462407252129e-05 0.0000000000000000e+00  4.6020275336070200e-04 4.2595887408421391e-04 0.0000000000000000e+00  5.6959972784195593e-04 7.4494023183438896e-04 0.0000000000000000e+00  -1.4758181274156221e-04 4.7786521746814495e-04 0.0000000000000000e+00  -2.5613280222066837e-04 9.5938201083279532e-04 0.0000000000000000e+00  2.3608611806314936e-04 9.8348499110847585e-04 0.0000000000000000e+00  -8.6103072490008410e-06 4.0264302432128359e-04 0.0000000000000000e+00  7.5401747439258311e-04 1.3128174057466697e-03 0.0000000000000000e+00  7.1224805514012030e-04 4.0067684296938243e-04 0.0000000000000000e+00  1.2664278885661463e-04 3.2128587940013814e-04 0.0000000000000000e+00  5.1893143560830511e-04 8.5299141116099348e-04 0.0000000000000000e+00  1.5836276486059790e-04 9.1488296971445652e-04 0.0000000000000000e+00  9.6127159951270121e-05 3.3342190644946841e-04 0.0000000000000000e+00  8.1168883847518617e-05 6.9322593085848329e-04 0.0000000000000000e+00  -4.9258013973025585e-04 8.9569034089085535e-04 0.0000000000000000e+00  -2.5306695099043400e-04 5.5252334252555238e-04 0.0000000000000000e+00  -6.9529912659312707e-04 -1.1846648359251825e-05 0.0000000000000000e+00  -2.7093809280604510e-04 1.3682871599343276e-03 0.0000000000000000e+00  -3.5447809628882503e-04 1.5524595754990019e-03 0.0000000000000000e+00  -2.8570901206960409e-04 4.9523717927655534e-04 0.0000000000000000e+00  1.0468453292900796e-05 8.3976523413073511e-04 0.0000000000000000e+00  2.4192364560903122e-04 7.8488051570022998e-04 0.0000000000000000e+00  4.1112404390591999e-04 6.3676051281216588e-04 0.0000000000000000e+00  -4.9759954346570000e-04 8.9814161234646561e-04 0.0000000000000000e+00  -8.3140492120719711e-04 7.2868739577882334e-04 0.0000000000000000e+00  -6.5606814362200946e-04 6.1851834379780072e-05 0.0000000000000000e+00  -6.2744374114734021e-04 1.0871137335290966e-03 0.0000000000000000e+00  -5.9341948809901973e-04 9.8659610334417953e-04 0.0000000000000000e+00  1.0068485009041381e-04 8.6721985588528855e-04 0.0000000000000000e+00  -2.1932098633688032e-04 1.1671422303480546e-03 0.0000000000000000e+00  8.0838083312252890e-04 5.7993635836022818e-04 0.0000000000000000e+00  -8.9843619851293001e-04 1.1913861621677621e-03 0.0000000000000000e+00  -4.7172442450335144e-04 5.1289472776721353e-04 0.0000000000000000e+00  -4.5570562155531762e-04 1.0668445501166235e-04 0.0000000000000000e+00  -1.8930910336426945e-04 4.3918565020195020e-04 0.0000000000000000e+00  -1.3308600363912582e-04 7.9372005224168877e-04 0.0000000000000000e+00  -5.8784242062601312e-05 1.3206403248834080e-03 0.0000000000000000e+00  2.9460663093749197e-04 8.3490616548700664e-04 0.0000000000000000e+00  1.0660031129034942e-04 6.0889350126274865e-04 0.0000000000000000e+00  -5.5680688061301412e-04 7.0519046105607772e-04 0.0000000000000000e+00  5.2625735990442801e-04 3.3249774183230735e-04 0.0000000000000000e+00  7.5164331588881562e-04 7.0060954029394287e-04 0.0000000000000000e+00  1.7812152895392864e-04 8.6192483097901240e-04 0.0000000000000000e+00  2.3846786235860395e-04 8.8374786582150482e-04 0.0000000000000000e+00  -1.7656080548162734e-04 6.4979520094383936e-04 0.0000000000000000e+00  2.6503238048496293e-04 -1.5699499435786282e-04 0.0000000000000000e+00  -1.8376564152378319e-04 2.0544618052073102e-03 0.0000000000000000e+00  6.7735539953813373e-04 1.2230610488653865e-03 0.0000000000000000e+00  8.4107982037238884e-04 6.0279202119719320e-04 0.0000000000000000e+00  5.4207529671953007e-04 8.9342112550491791e-04 0.0000000000000000e+00  1.2921440520260500e-03 1.2245723021831233e-03 0.0000000000000000e+00  6.4121916429913100e-04 -3.0205611755451754e-04 0.0000000000000000e+00  1.2850914010326407e-04 -2.4883554346420976e-04 0.0000000000000000e+00  -4.1887825122808139e-04 1.5177544369435402e-03 0.0000000000000000e+00  6.3062451448043036e-04 -3.4400574643781324e-04 0.0000000000000000e+00  -8.0364300955648969e-03 1.9681504589071411e-03 0.0000000000000000e+00  -1.9337810682507825e-03 1.8632755360956945e-03 0.0000000000000000e+00  7.7680689853115877e-06 1.0645616787362634e-05 0.0000000000000000e+00  1.3078489522127569e-04 -7.8429009331050276e-04 0.0000000000000000e+00  6.6726562119667375e-06 3.0844184064288728e-06 0.0000000000000000e+00  1.3532073471350921e-04 5.6951157350587070e-04 0.0000000000000000e+00  8.0820956121926873e-05 -4.7300990484181165e-04 0.0000000000000000e+00  -6.2512332577500235e-05 -5.2571106627321326e-04 0.0000000000000000e+00  3.6538228126764565e-04 -2.4894419756618750e-04 0.0000000000000000e+00  2.7904698508369775e-02 2.2717763902907975e+00 0.0000000000000000e+00  2.4544883129300032e-02 -1.3404569624962663e+00 0.0000000000000000e+00  1.9285692638325233e-02 2.7545968479835912e+00 0.0000000000000000e+00  3.2318878256982229e-02 7.1421512364454343e-01 0.0000000000000000e+00  -5.9327442678807252e-04 -8.4821395486665114e-04 0.0000000000000000e+00  1.3888769839028123e-03 -1.2711593745258264e-05 0.0000000000000000e+00  -3.5097357982338996e-04 -5.2611489092766535e-04 0.0000000000000000e+00  -2.9168405522380213e-02 -1.8963329220816574e-01 0.0000000000000000e+00  4.8865997631593360e-04 -6.3169965202300807e-04 0.0000000000000000e+00  1.1406147014447302e-05 -5.6985733062968757e-05 0.0000000000000000e+00  4.5362978788073766e-01 2.3840244298752595e+00 0.0000000000000000e+00  1.0249555224913347e-01 -1.4706608221530630e+00 0.0000000000000000e+00  -9.4396053240827407e-02 1.3995693536971121e+00 0.0000000000000000e+00  4.3005003679342195e-04 -8.7547763610190102e-04 0.0000000000000000e+00  -3.6924316357318084e-02 -1.5948544902588528e+00 0.0000000000000000e+00  -8.9415624314429426e-02 1.1388871512075456e+00 0.0000000000000000e+00  -4.2469570171746801e-03 -9.2474188509763860e-04 0.0000000000000000e+00  4.5343301554983454e-05 -1.4329811143048237e+00 0.0000000000000000e+00  5.9212861009365132e-02 1.9578757775664790e+00 0.0000000000000000e+00  1.2245508332041878e-01 1.9853159646183194e+00 0.0000000000000000e+00  -2.8844068550313517e-01 3.0101670090294159e+00 0.0000000000000000e+00  1.9265230815833758e-03 1.2497994407854465e+00 0.0000000000000000e+00  4.2415854333454367e-01 3.2406558119984146e+00 0.0000000000000000e+00  7.7149740203899309e-02 -1.1887636586903960e+00 0.0000000000000000e+00  1.3101338083146979e-01 1.5372196555580540e+00 0.0000000000000000e+00  -4.4530161050504347e-01 1.2347069973731333e+00 0.0000000000000000e+00  1.3530377111338964e-02 1.9090037705455729e+00 0.0000000000000000e+00  1.3525144489814820e-02 -1.6256821835706661e+00 0.0000000000000000e+00  1.1938430412566790e-02 1.9823601562930060e+00 0.0000000000000000e+00  1.0315773810138673e+00 3.0812491842491241e+00 0.0000000000000000e+00  -1.0656550150266042e-01 2.7975355640897254e-01 0.0000000000000000e+00  -1.2243642270139776e-01 2.0827707535084916e+00 0.0000000000000000e+00  -1.1040584330095859e-01 1.2259494452512744e-02 0.0000000000000000e+00  7.4923229651059409e-02 4.6694641347156263e-01 0.0000000000000000e+00  1.0445407729182862e-05 6.7062081276416874e-06 0.0000000000000000e+00  -7.9531551408807843e-01 2.7700659170699926e+00 0.0000000000000000e+00  -4.8594563874805284e-02 1.9167727476840268e+00 0.0000000000000000e+00  8.0821415631210959e-03 3.5024558593172489e-01 0.0000000000000000e+00  -9.1242139339687174e-03 -1.2423858904870977e+00 0.0000000000000000e+00  -8.6147540871287231e-03 7.9766177223338119e-01 0.0000000000000000e+00  -7.1224506679736663e-02 1.5545760858930660e+00 0.0000000000000000e+00  9.4412009116456499e-03 -1.6637611681395887e+00 0.0000000000000000e+00  -2.1290176063249158e-01 2.0255886571174799e+00 0.0000000000000000e+00  6.8888786965374510e-02 -1.8491168623863470e+00 0.0000000000000000e+00  -9.5949410715714580e-03 1.2419319062152293e-03 0.0000000000000000e+00  -5.0125061841235871e-02 1.7454549560397685e+00 0.0000000000000000e+00  6.1743436448043476e-02 -1.6504153912145696e+00 0.0000000000000000e+00  1.3330204133242329e-01 1.2129665223098478e-01 0.0000000000000000e+00  1.7420315716223164e-01 -2.0100556791356627e+00 0.0000000000000000e+00  5.0664484752876500e-02 -5.5289236554463117e-01 0.0000000000000000e+00  -2.8934252482217263e-02 1.8430229068305661e+00 0.0000000000000000e+00  8.0830530513610763e-02 -1.6351874999343339e+00 0.0000000000000000e+00  7.0876335974133098e-01 -1.3102614654024325e+00 0.0000000000000000e+00  3.1633331191476616e-01 -1.6101701645901294e+00 0.0000000000000000e+00  2.1514429234670560e-01 1.6852688347139342e+00 0.0000000000000000e+00  5.7863933686885090e-02 -6.9712927721241225e-01 0.0000000000000000e+00  2.3129667276253909e-04 -4.7587006120628571e-05 0.0000000000000000e+00  3.4689811559006248e-03 -9.1935289057887488e-04 0.0000000000000000e+00  -2.0037692360194631e-01 -1.4150813345082620e+00 0.0000000000000000e+00  -1.0061748043459691e-01 -1.9998244451478147e+00 0.0000000000000000e+00  2.5991348470181039e-04 -5.4994235390304509e-04 0.0000000000000000e+00  -1.0863933771462787e-01 -1.6369179600041648e+00 0.0000000000000000e+00  -2.9350699873630485e-02 9.1498675004636765e-01 0.0000000000000000e+00  -4.4614146911730171e-02 -1.4549138567539895e-02 0.0000000000000000e+00  -4.8903510250820654e-04 -2.7407578394210506e-04 0.0000000000000000e+00  -8.8690765760827701e-04 7.4770658011749874e-04 0.0000000000000000e+00  2.7673679114690767e-02 2.0244886143475127e+00 0.0000000000000000e+00  9.5015770983527606e-03 1.9508516612226625e+00 0.0000000000000000e+00  8.0086498348601320e-02 -1.1222108588576440e+00 0.0000000000000000e+00  3.2115356996130669e-02 9.3166974986751239e-01 0.0000000000000000e+00  7.8162018618231095e-03 -1.2422192793386058e+00 0.0000000000000000e+00  1.3835155775215362e-02 -1.5387196124301450e+00 0.0000000000000000e+00  1.2999364609650036e-03 -7.1289157875052022e-05 0.0000000000000000e+00  5.8573200867666786e-01 -7.0556758831876584e-03 0.0000000000000000e+00  5.4388031042714571e-02 -8.2151767262808428e-01 0.0000000000000000e+00  -3.4798732792169697e-04 -9.1361716944716727e-04 0.0000000000000000e+00  6.6867993586126352e-04 -6.9656390558759643e-04 0.0000000000000000e+00  5.3005294917662937e-04 -5.1479995747273188e-04 0.0000000000000000e+00  -8.6279373985320522e-04 -1.0728440581424480e-03 0.0000000000000000e+00  -2.1653502912476210e-03 -9.0343857107966761e-04 0.0000000000000000e+00  8.0141967439295295e-07 -3.4230569814389171e-05 0.0000000000000000e+00  5.4081190550856221e-05 -3.1746715880508089e-04 0.0000000000000000e+00  -2.3222173223809211e-04 -1.0214004518687748e-03 0.0000000000000000e+00  1.9611366875950059e-01 -3.2041470312206655e-01 0.0000000000000000e+00  -5.7165660792070055e-02 -9.3788163694044135e-01 0.0000000000000000e+00  -2.2373819654307847e-01 2.4729926346076395e-01 0.0000000000000000e+00  6.3975878748622608e-02 -7.8132957389610802e-01 0.0000000000000000e+00  7.3829981811371556e-02 -1.7877605347418477e-01 0.0000000000000000e+00  1.9199288450854402e-03 3.8505324294914621e-04 0.0000000000000000e+00  -1.5330206715925971e+00 -6.6334500293601484e-01 0.0000000000000000e+00  -3.1883862175238686e-01 -3.8386105496626688e-01 0.0000000000000000e+00  4.3158517221501429e-02 -1.6104779342017108e+00 0.0000000000000000e+00  -1.6309984961308116e-01 -1.8464203059310011e+00 0.0000000000000000e+00  -9.2906521844198353e-01 -4.9722081083965297e-01 0.0000000000000000e+00  -1.0972967173663269e-01 2.9533962561016824e-01 0.0000000000000000e+00  -3.4555783546563201e-01 -1.0191426382218338e+00 0.0000000000000000e+00  4.6456574902470127e-01 -5.3842431981202477e-01 0.0000000000000000e+00  -9.3864289974222637e-02 -1.1642753981710270e+00 0.0000000000000000e+00  1.3301533377582109e-01 1.6043130921683362e+00 0.0000000000000000e+00  -6.9526738128718499e-02 -1.8160549627032891e+00 0.0000000000000000e+00  2.9808739263198155e-02 2.1389330065461545e+00 0.0000000000000000e+00  -8.0924871317750413e-01 -1.4042637544846175e+00 0.0000000000000000e+00  -5.0798608096086523e-02 -1.9468698862168810e+00 0.0000000000000000e+00  -5.6821235868458470e-03 1.7471521534881085e+00 0.0000000000000000e+00  3.6172724815399730e-02 -1.0254345680469537e+00 0.0000000000000000e+00  5.3726477962411229e-02 -1.4676368376287368e+00 0.0000000000000000e+00  1.2791714640522078e-01 -9.2627700665299384e-01 0.0000000000000000e+00  1.5770620793604304e+00 4.7749207852256403e-01 0.0000000000000000e+00  7.5182803597911296e-02 1.7133879046396303e+00 0.0000000000000000e+00  1.6325320505138723e-02 -2.1645029570679837e+00 0.0000000000000000e+00  4.8927048136091070e-02 1.1057499359042535e+00 0.0000000000000000e+00  -2.8698195051581461e-02 3.4504759003725621e-01 0.0000000000000000e+00  -5.2065366444868783e-03 1.8886710947368535e+00 0.0000000000000000e+00  -1.0498324947418718e-02 5.0412427064605170e-01 0.0000000000000000e+00  -1.5392836498154304e-02 1.0887246251941558e+00 0.0000000000000000e+00  3.7831238166487746e-01 1.0504964314499472e+00 0.0000000000000000e+00  -3.1595046076594213e-01 -9.5825501853132586e-02 0.0000000000000000e+00  1.9135115380479595e-01 -4.2647000210392594e-01 0.0000000000000000e+00  -9.5028299537907174e-03 1.1505742199784652e+00 0.0000000000000000e+00  -5.6364381342762497e-02 3.0638316881572913e-01 0.0000000000000000e+00  3.0607160739567100e-02 -1.5877758362553640e+00 0.0000000000000000e+00  3.3853103220171023e-02 5.9313813690009221e-01 0.0000000000000000e+00  -2.0102769410402926e-01 3.0445043986707260e-01 0.0000000000000000e+00  -6.5014726883303717e-02 1.6265081990953407e+00 0.0000000000000000e+00  2.6605410043647713e-02 -1.3838560644721842e-01 0.0000000000000000e+00  -3.5326780583499022e-02 -3.8284043644075866e-01 0.0000000000000000e+00  3.9560564185030227e-02 1.2753407109475787e+00 0.0000000000000000e+00  -5.5003085425106502e-01 -5.3634848813385892e-02 0.0000000000000000e+00  9.4531924955987234e-01 -5.9453625257125464e-01 0.0000000000000000e+00  1.5557748578907611e-02 -1.9001492853905708e+00 0.0000000000000000e+00  2.9099188467152353e-02 -1.5307199499413495e+00 0.0000000000000000e+00  -1.9152937373824196e-02 -2.1211984401395023e+00 0.0000000000000000e+00  -4.8149879215947666e-01 -2.5457532660539212e-01 0.0000000000000000e+00  -8.5907270554900675e-02 1.2210270424478462e+00 0.0000000000000000e+00  9.6757616759409371e-01 1.5224650249277640e+00 0.0000000000000000e+00  2.8178592539152225e-01 6.4003643156630141e-01 0.0000000000000000e+00  -9.6923052454886555e-02 -6.0610969046575702e-01 0.0000000000000000e+00  6.2378050816953058e-02 -5.6336548578466072e-01 0.0000000000000000e+00  -8.2568141700921083e-02 -1.9239659728805054e+00 0.0000000000000000e+00  1.1919654261634467e-01 1.9443736527143460e+00 0.0000000000000000e+00  5.3560529046910374e-02 2.0749422418863341e+00 0.0000000000000000e+00  -6.9561975730102130e-02 1.7475463528078976e+00 0.0000000000000000e+00  1.0206578447709667e-01 -1.7547402775337817e+00 0.0000000000000000e+00  7.4984927653849237e-03 8.6843439150659107e-01 0.0000000000000000e+00  7.3628850681958888e-02 -1.8796478847424309e+00 0.0000000000000000e+00  -6.3007569480319089e-02 1.6112747524737192e+00 0.0000000000000000e+00  -7.4066804459621202e-02 2.0045519483189702e+00 0.0000000000000000e+00  4.7042361056845250e-01 2.1444734591996459e+00 0.0000000000000000e+00  4.9449596808806236e-02 -7.1554160022268165e-01 0.0000000000000000e+00  -1.7142568176081521e-01 1.9537184466264195e+00 0.0000000000000000e+00  -1.2722163091394449e+00 2.1725720565655640e+00 0.0000000000000000e+00  -3.1196093790138085e-02 -1.7037374996370498e+00 0.0000000000000000e+00  3.9196257273737017e-02 -4.3942090838940945e-01 0.0000000000000000e+00  -1.3284777835600470e-01 2.6682187853672530e+00 0.0000000000000000e+00  5.1955671619166331e-02 -2.9970078641618164e-01 0.0000000000000000e+00  3.0008055351749674e-04 -4.7294314713858276e-04 0.0000000000000000e+00  -9.1419064955928803e-02 -7.4704413256975255e-01 0.0000000000000000e+00  6.2660802391654435e-01 -1.2598602066925986e+00 0.0000000000000000e+00  -2.2778046571326569e-02 -1.9674194092172204e+00 0.0000000000000000e+00  -5.0656494794902182e-02 -1.3578164706728313e+00 0.0000000000000000e+00  1.4172890246788702e-01 2.0854753765180747e+00 0.0000000000000000e+00  1.2979699813381479e-02 2.1665851919955412e-01 0.0000000000000000e+00  -3.1143139169075896e-04 -8.5577070685486549e-04 0.0000000000000000e+00  3.0522904817580705e-02 -1.4883423162920717e+00 0.0000000000000000e+00  1.5642606002316323e-01 -1.6367076528166788e+00 0.0000000000000000e+00  4.3719777803077481e-02 3.6495271733135615e-01 0.0000000000000000e+00  -3.7862709007495203e-04 -9.2351240728201164e-04 0.0000000000000000e+00  -1.3625953040679231e-01 2.4959316543771093e-01 0.0000000000000000e+00  -1.2157914267427393e-01 1.9824110889356361e+00 0.0000000000000000e+00  1.2260346785702203e-01 -1.0586179413300054e+00 0.0000000000000000e+00  6.7849200340535419e-03 9.3024249682850080e-01 0.0000000000000000e+00  4.3361102103373729e-04 5.7535554697975473e-04 0.0000000000000000e+00  -1.0002421351487685e+00 2.3063032534167420e+00 0.0000000000000000e+00  1.4478229899365053e-01 1.3661470506245992e+00 0.0000000000000000e+00  9.4847470846595311e-02 9.6456364704269459e-01 0.0000000000000000e+00  -8.3214931711391091e-03 -2.8375745162308517e-03 0.0000000000000000e+00  -1.3534591747193122e-02 -1.6649996502726410e+00 0.0000000000000000e+00  1.6961540561889525e-02 2.9084915063532235e-01 0.0000000000000000e+00  -5.6116946763923936e-01 2.7888433723152590e+00 0.0000000000000000e+00  -1.7755136324980497e-01 1.4733324229001168e+00 0.0000000000000000e+00  -9.9537356884541378e-02 -1.4230344440378597e+00 0.0000000000000000e+00  2.9185626145605165e-01 -2.3181639790706035e-01 0.0000000000000000e+00  -1.5696291305181312e-01 -8.0998034050013679e-01 0.0000000000000000e+00  -2.6272877668221079e-02 1.1084744421245660e+00 0.0000000000000000e+00  1.1131206373096747e-02 -1.4910749074917651e+00 0.0000000000000000e+00  7.1622381967461506e-04 -6.3253808525556745e-04 0.0000000000000000e+00  -5.0318372978572146e-01 1.9692205161194354e+00 0.0000000000000000e+00  4.7334015598867374e-01 2.4006436609343504e+00 0.0000000000000000e+00  5.0915480682860101e-03 -1.3915671717066400e+00 0.0000000000000000e+00  -2.7756942455302785e-01 -6.5429034089418736e-01 0.0000000000000000e+00  3.2296898073889239e-02 4.0124051613435169e-01 0.0000000000000000e+00  -1.9908006185627908e-02 -1.9995486548272055e+00 0.0000000000000000e+00  -1.4192249056225764e-05 -4.6580146529008427e-05 0.0000000000000000e+00  1.0127038678199652e-02 1.8868099434858128e+00 0.0000000000000000e+00  3.5552360457274536e-02 1.3230482859112254e+00 0.0000000000000000e+00  7.6690693676499319e-02 1.9934424465843830e+00 0.0000000000000000e+00  3.1336134492386839e-04 7.2705296862824278e-04 0.0000000000000000e+00  -1.9996535037855426e-02 -1.2757861399914368e+00 0.0000000000000000e+00  -2.2269129658092784e-02 1.1236451223717072e+00 0.0000000000000000e+00  7.9002944648139817e-01 3.2522144165100006e+00 0.0000000000000000e+00  -2.0880674241896221e-03 -1.7389383083598047e+00 0.0000000000000000e+00  -3.4951248402727447e-03 1.0644688843007197e+00 0.0000000000000000e+00  2.4063041584513219e-02 1.9719523141623232e-01 0.0000000000000000e+00  -6.2964686354349111e-02 1.6793581512335984e+00 0.0000000000000000e+00  -2.2633013194389470e-02 -1.0295412653515870e+00 0.0000000000000000e+00  2.6119816611759888e-01 -5.1110671999897006e-01 0.0000000000000000e+00  8.1673988184478852e-02 2.0546135452350613e+00 0.0000000000000000e+00  6.0825315752012846e-02 1.8380369622826578e-01 0.0000000000000000e+00  -3.5846720727772979e-01 -1.3651167531118424e+00 0.0000000000000000e+00  1.4962455796525684e-01 2.7557970943972463e+00 0.0000000000000000e+00  1.0458148289859784e-01 -1.0578041441326060e+00 0.0000000000000000e+00  -3.8647085285704708e-01 -7.7417839495496432e-01 0.0000000000000000e+00  8.0128470240871469e-02 -2.1161923584491396e+00 0.0000000000000000e+00  4.6938775426702842e-02 -1.3821999466317232e+00 0.0000000000000000e+00  3.6659803182595913e-01 1.5157357662824495e+00 0.0000000000000000e+00  -2.1869763522023534e-04 4.2959061114807918