<?xml version="1.0"?>
<VTKFile type="UnstructuredGrid"  version="0.1"  >
<UnstructuredGrid>
<Piece  NumberOfPoints="5089" NumberOfCells="9865">
<Points>
<DataArray  type="Float64"  NumberOfComponents="3"  format="ascii">0 1.5 0  0 0 0  0.1029058182573948 0 0  0.1029058182573948 0.02393156642875577 0  0.1251489251828899 0.06631226582407952 0  0.1645395112957465 0.09350162426854149 0  0.2120536680255323 0.0992708874098054 0  0.2568064746731156 0.08229838658936564 0  0.288545602565321 0.04647231720437685 0  0.3 0 0  0.51 0 0  0.5220577136594005 0.04499999999999999 0  0.555 0.07794228634059948 0  0.6 0.09 0  0.645 0.07794228634059946 0  0.6779422863405995 0.04499999999999999 0  0.6899999999999999 0 0  0.8924037639192813 0 0  0.8924037639192813 0.02287028598995353 0  0.9110081306187559 0.06465637775217206 0  0.9450000000000001 0.09526279441628825 0  0.9885018690405581 0.1093974084905101 0  1.033991869381244 0.1046162167924669 0  1.073604366699474 0.08174593080251337 0  1.100490000340686 0.04474103073833802 0  1.11 0 0  1.502905818257395 0 0  1.502905818257395 0.02393156642875577 0  1.52514892518289 0.06631226582407952 0  1.564539511295747 0.09350162426854149 0  1.612053668025532 0.0992708874098054 0  1.656806474673116 0.08229838658936564 0  1.688545602565321 0.04647231720437685 0  1.7 0 0  1.82324056211084 0 0  1.82324056211084 0.02253860454731437 0  1.847611141284377 0.06045996594834066 0  1.888614812938137 0.07918571535047463 0  1.933233201040151 0.07277055962836147 0  1.967300282626494 0.0432512653964478 0  1.98 0 0  2.202905818257395 0 0  2.202905818257395 0.02393156642875577 0  2.22514892518289 0.06631226582407952 0  2.264539511295746 0.09350162426854149 0  2.312053668025532 0.0992708874098054 0  2.356806474673115 0.08229838658936564 0  2.388545602565321 0.04647231720437685 0  2.4 0 0  2.51 0 0  2.522057713659401 0.04499999999999999 0  2.555 0.07794228634059948 0  2.6 0.09 0  2.645 0.07794228634059946 0  2.677942286340599 0.04499999999999999 0  2.69 0 0  3 0 0  3 1.5 0  0 0.75 0  1.5 1.5 0  0 0.375 0  0 0.1875 0  0.75 1.5 0  2.25 1.5 0  3 0.75 0  1.803364316093307 0.8194216192460635 0  0.7085714285714286 0.7914285714285714 0  2.396697907928333 0.698796196655595 0  1.26039230397729 0.6323879781298929 0  1.125 1.5 0  3 1.125 0  0.375 1.5 0  1.418284719659703 1.05567510076647 0  2.625 1.5 0  0 1.125 0  2.4375 1.120298797465005 0  0.4140309460188812 0.4815551607069073 0  0.9375 1.133540466589862 0  1.875 1.5 0  0.4143011358073044 1.085698864192695 0  2.042557228405723 0.4764057674039468 0  3 0.375 0  1.615235786026768 0.4839120951620492 0  0.9172436665953028 0.4786128535408891 0  2.136144598898015 0.9367443054342734 0  2.712089662802327 0.5625 0  1.752709466448716 1.168812671476193 0  2.696461986964791 0.9012929362807449 0  1.307422665144653 0.3094324321200764 0  2.0625 1.24476578117044 0  2.446405755792607 0.3860402512509704 0  0.3158723471199726 0.7836709721106835 0  1.018921994797561 0.831404696897531 0  1.521099871135537 0.7571953762650785 0  2.718190509848388 1.189592528269884 0  0.665307193508031 1.225469494285917 0  1.199897701782483 1.230481185797768 0  0.2233959957266646 1.276604004273335 0  0.6649397520368477 0.3607836886074089 0  0 0.5625 0  2.685543358160364 0.3192521589045413 0  1.775621962986754 0.2975552026784072 0  2.025654700292002 0.7195245521041802 0  0.1961827192748887 0.9897295638426992 0  1.25729921569077 0.8746334216075233 0  1.534142212444284 1.264044413891354 0  1.624439414641745 0.9597398592303362 0  2.117668421489377 0.2641528949307972 0  1.945094170902585 1.053880768096555 0  3 0.1875 0  0.6251639682912251 1.002291403912492 0  0.719601375969486 0.5727782913443102 0  0.2313942916225519 0.3335511938861402 0  0.4687668770508729 0.274248243200137 0  0.5143238740412669 0.6811446824633056 0  1.829350286632844 0.5059917594077202 0  1.082379929992235 0.3249418149194327 0  2.540679850598416 1.305492850437689 0  2.282283153018704 1.279796495628565 0  2.355666841619378 0.9154942188580675 0  0.2114722061938988 0.5448236655965607 0  3 1.3125 0  2.8125 1.5 0  2.263750685400308 0.5173381079832993 0  0.4343085727049624 1.296611441170993 0  1.6875 1.5 0  1.016037518489582 1.324553740130353 0  0.846292314151325 0.9469220663180872 0  1.122827752751251 1.035495517001457 0  1.3125 1.5 0  1.306452909128697 0 0  0.8906638629565067 0.6773217378320744 0  1.517175933126145 0.2981487507037606 0  0.7996957920902151 0.2224603600775558 0  1.446370464174038 0.5785990786868803 0  1.689965192988266 0.6625083927402473 0  0.4864273298880485 0.870473805626289 0  3 0.9375 0  2.831315819563651 1.036097903808422 0  1.106384347284952 0.5163011422226527 0  0.5625 1.5 0  0.9375 1.5 0  0.1875 1.5 0  2.0625 1.5 0  3 0.5625 0  0 0.9375 0  0 1.3125 0  2.4375 1.5 0  2.196044825237544 1.113880351688974 0  2.210431846521007 0.695834380790271 0  0.8262236946704767 1.326155809103077 0  2.523003751809735 0.8349453583788917 0  1.882533682486712 1.30904671408086 0  2.845 0 0  2.813607095438526 0.1837681344374856 0  2.298597604800397 0.280431891689246 0  1.972062138207083 0.8834951655964545 0  1.943392101370151 0.2475417334111557 0  2.828663592588797 0.4267055109367558 0  2.803791026183859 0.7364868569598708 0  2.523250359922468 0.5585816735541729 0  2.602935827188279 1.053310414780935 0  1.692458045540587 1.328962813001376 0  1.232271555781778 0.154950218767993 0  1.36985844680238 1.21899526865025 0  1.785321775315372 1.004919979330962 0  2.534633602602767 0.2439507161942105 0  0.7651985499724481 1.092302611968735 0  2.637828969450683 0.71279922663893 0  1.100469689258933 0.6843495375675052 0  1.315800235513153 0.4755545830105288 0  1.405546076805209 0.1782543944119986 0  2.826282129872177 1.326282129872177 0  0.575884497984488 0.4967904868667201 0  0.1516233666565383 0.826056857120972 0  0.3483704262380678 0.6272257636119053 0  1.568331672486121 1.108640197801574 0  1.475101554186818 0.9082985267599337 0  1.868470483419324 0.6670273102604994 0  0.3467545185571825 0.9433646607171683 0  2.15625 1.373787484318285 0  1.41742615593433 1.367603819494743 0  2.854904919456998 0.8828609574219635 0  0.9476741986655126 0.255395459587152 0  1.267450600339273 1.091056105706913 0  0.114311143675241 0.65625 0  0.65625 1.37859278398136 0  2.170651243108527 0.4023187025489676 0  1.21875 1.380886352874642 0  0.3798992233573569 0.1593768045411093 0  0.9831420651531181 0.9956358347774316 0  1.456186685150796 0.4319140716985383 0  2.586721317152155 0.4269308613840649 0  2.863979293145301 1.178604739864835 0  1.658646098314701 0.8045749301224775 0  1.383553643956373 0.7098158224076794 0  0.154006438477797 1.138458423126247 0  2.856044831401163 0.5977865618779903 0  0.553876003596687 1.130313370813194 0  2.680231675041409 1.360526450748891 0  2.486056782242186 0.9722817331473952 0  1.891212003911469 0.3789027676568836 0  0.8138227412155181 0.37102502168449 0  1.064674644221452 1.192903489156071 0  0.6045358160041144 0.2320910326486189 0  1.194008126159845 0.4081242368041457 0  2.138311355076408 0.5770795769918613 0  0.134142636330111 0.2313017261983794 0  0.8460209454012837 0.8084258449188535 0  0.1293517554287885 0.4305045409359897 0  0.3205820557512212 1.373790064297892 0  0.2928933613730453 1.155196229839076 0  2.404969940572298 1.358123451328196 0  0.9933877375830629 0.5899302104012978 0  2.090287791367255 0.1211621925433303 0  2.904889173308855 0.28125 0  0.1246766077328953 1.375323392267105 0  2.302041695038792 0.7931069109810627 0  2.389228836127323 0.5648368411465005 0  1.886839219693261 1.174850198523801 0  1.96875 1.5 0  2.005259577028834 1.368575570359887 0  2.58746882374347 1.183267841227943 0  1.646515580921743 0.3486369169127919 0  1.980147904783248 0.5942137934419368 0  2.07740167257538 1.055304717195479 0  1.57300338334685 0.6065157750282059 0  1.59375 1.5 0  1.679678032322464 0.2100937046526968 0  2.252673654577562 0.9960348417811178 0  2.17832845930892 0.8178435559778986 0  1.78125 1.5 0  2.021596890434516 0.349571947542988 0  1.79926971381977 0.1752587163176004 0  0.503878860142697 0.3943984894172995 0  1.146622573165596 0.8060813049917908 0  3 1.40625 0  2.649807995179342 0.2020005420916801 0  0.3438742656237004 0.2790576170649142 0  1.546875 1.386334759531577 0  3 0.09375 0  1.320989371181643 0.9800954309611291 0  1.270074893254929 0.7536540780084714 0  2.70770359261854 0.4387759707667409 0  0.5606072232931772 1.296106034499297 0  0.7858104720553775 1.211812834033452 0  2.317237622700128 1.09958886094401 0  2.518665098961854 0.68166123334458 0  1.747777558052355 0.4158756118164814 0  1.683029275145126 1.069756268641544 0  0.46875 1.5 0  2.407758410849746 0.2048845882413086 0  2.396684507181482 1.235853070423643 0  1.919569286509587 0.7755948020085885 0  2.290752654053557 0.4002939182457882 0  0.2367853577638227 0.6856443876677092 0  1.644821718344275 1.219632237269969 0  0 1.03125 0  0.5821665354391095 0.7878606619613046 0  0.6422016866915001 0.674771619551397 0  0.2917070890414653 0.4458139506278615 0  0.7912018819596407 0 0  0.1045102716700244 1.249819735557644 0  1.151091219660612 0.9224858968529193 0  2.719174284445647 1.071883664029489 0  0.7216906855953001 0.918545393630683 0  0.2528020696803429 0.8787006417214202 0  1.726437981314609 0.9055659975386789 0  1.466273966174817 1.158744006060248 0  0.500278661176367 0.9948136517426003 0  1.114706325735654 0.2023659607018325 0  1.193213601931895 0.2926984867334158 0  0.9725372994821596 0.3724679154862157 0  2.214714190066689 0.1991474088029779 0  2.411776451427861 0.8179674328277735 0  1.997105232295531 1.153439169094244 0  0.497834479014996 1.390464488336983 0  0.4532232073331143 0.5868543641678674 0  0.4094710929462204 0.7215160819073434 0  0.2730945637736263 0.1927345247561336 0  2.091452909128697 0 0  1.88727127931541 0.9574017932976476 0  0.7331675361580886 0.4562359341911597 0  0.808798696301996 0.1107204599928528 0  2.794056136375906 0.2935548935723623 0  2.172174128810919 1.263645408055929 0  2.266351953173893 1.389929090293708 0  0.9205129738298803 1.252177379624563 0  2.58760749
[...]
<PointData  Vectors="f_60"> 
<DataArray  type="Float64"  Name="f_60"  NumberOfComponents="3" format="ascii">-2.1169386523756198e-04 -5.1675813901245723e-04 0.0000000000000000e+00  3.6937823960418796e-04 -1.1306489851852072e-04 0.0000000000000000e+00  4.4381277566759490e-04 3.1454915238032441e-04 0.0000000000000000e+00  5.8992776015829088e-04 6.8842152122483916e-04 0.0000000000000000e+00  -9.1129001564581406e-05 5.9417883181454043e-04 0.0000000000000000e+00  -4.1526445995592479e-04 9.6819647903994698e-04 0.0000000000000000e+00  1.7083232661772347e-04 1.0394749229697472e-03 0.0000000000000000e+00  9.0656016599382128e-05 3.8441636599917509e-04 0.0000000000000000e+00  8.0453104868194610e-04 1.3807468355174412e-03 0.0000000000000000e+00  6.1998492763269187e-04 3.9174008907223810e-04 0.0000000000000000e+00  9.1791151761492346e-05 2.7778461425002779e-04 0.0000000000000000e+00  4.7897024990698872e-04 8.1761880933228326e-04 0.0000000000000000e+00  2.1556042489066223e-04 9.6100368658850728e-04 0.0000000000000000e+00  1.3405506312989056e-04 3.4333541805491122e-04 0.0000000000000000e+00  8.4559399877476619e-05 7.1056227235936572e-04 0.0000000000000000e+00  -5.1571027220395280e-04 9.3117663660003628e-04 0.0000000000000000e+00  -2.6557581536749292e-04 5.7214162208046567e-04 0.0000000000000000e+00  -5.7346994454305180e-04 -3.7292399565019631e-06 0.0000000000000000e+00  -2.5267586378453636e-04 1.3607368391981148e-03 0.0000000000000000e+00  -3.3369453501820985e-04 1.7325710302836339e-03 0.0000000000000000e+00  -3.2074606615082826e-04 5.5715077963183800e-04 0.0000000000000000e+00  3.6459752403019531e-05 8.0426549143062273e-04 0.0000000000000000e+00  2.1571790066066387e-04 8.4721202615755547e-04 0.0000000000000000e+00  3.9963563388072446e-04 7.4461887292296249e-04 0.0000000000000000e+00  -5.0711680156440844e-04 8.5038301162970731e-04 0.0000000000000000e+00  -7.9763557127334210e-04 5.7374874786301556e-04 0.0000000000000000e+00  -6.0198675844264549e-04 2.8500836398943762e-05 0.0000000000000000e+00  -6.0661441322764351e-04 1.1121579700722015e-03 0.0000000000000000e+00  -7.7290088373960621e-04 1.1100584088926477e-03 0.0000000000000000e+00  9.2657766581981830e-05 8.7619432337285037e-04 0.0000000000000000e+00  -1.6216635276907851e-04 1.2014589312813540e-03 0.0000000000000000e+00  8.5200764654107101e-04 6.2792814123558262e-04 0.0000000000000000e+00  -9.1452241622119539e-04 1.1755509484061334e-03 0.0000000000000000e+00  -4.2119622716876431e-04 3.1487857567902511e-04 0.0000000000000000e+00  -4.9410602209992249e-04 9.4279625511949891e-05 0.0000000000000000e+00  -2.2709983570763634e-04 4.5906243121701640e-04 0.0000000000000000e+00  -2.7878936384545126e-04 7.8054110512839323e-04 0.0000000000000000e+00  7.2739028405937659e-05 1.3785675390616339e-03 0.0000000000000000e+00  3.9499691049565923e-04 8.3452110946642406e-04 0.0000000000000000e+00  3.3995332939876470e-05 6.0091829649452661e-04 0.0000000000000000e+00  -5.8707664635895807e-04 6.0572578336902480e-04 0.0000000000000000e+00  4.4134703100559330e-04 1.6395625540998715e-04 0.0000000000000000e+00  7.1570917477958276e-04 5.6383288884886680e-04 0.0000000000000000e+00  1.3609677164562413e-04 9.2437681944540983e-04 0.0000000000000000e+00  4.0528268339551436e-04 1.0012800307886674e-03 0.0000000000000000e+00  -1.7161610844644844e-04 5.7649405399914022e-04 0.0000000000000000e+00  3.6389678104304491e-04 -1.3804644976623043e-04 0.0000000000000000e+00  -2.8913111725025132e-04 1.8979059301355455e-03 0.0000000000000000e+00  6.6875852718032629e-04 8.4314390986424718e-04 0.0000000000000000e+00  7.3446901157944396e-04 2.7979778910615030e-04 0.0000000000000000e+00  4.4611251840284889e-04 6.3340063389214450e-04 0.0000000000000000e+00  1.6507615263020347e-03 1.4544822299441006e-03 0.0000000000000000e+00  6.0546196349150669e-04 -8.8205093018559042e-05 0.0000000000000000e+00  -8.0074342235560725e-05 1.7436487482588015e-04 0.0000000000000000e+00  -3.9195925357283509e-04 6.9844982164925159e-05 0.0000000000000000e+00  2.5812762704578702e-04 -7.1614399360709019e-04 0.0000000000000000e+00  -3.9187024385525706e-03 9.1568039335746779e-05 0.0000000000000000e+00  9.0629462261509509e-04 2.4387022902124070e-04 0.0000000000000000e+00  9.4602552876319077e-06 1.1901589421578386e-05 0.0000000000000000e+00  1.8639341539367646e-04 -7.7422249218168687e-04 0.0000000000000000e+00  5.9207938521025074e-06 -1.7597831814006381e-05 0.0000000000000000e+00  1.5515303094734297e-04 6.7648947029156031e-04 0.0000000000000000e+00  9.9061133381837699e-05 -4.3057021845401960e-04 0.0000000000000000e+00  -7.7654438088102523e-05 -5.1671479178499102e-04 0.0000000000000000e+00  -8.7993064957940851e-05 -2.3396272092195749e-04 0.0000000000000000e+00  3.2942180968720779e-02 2.5257471581923618e+00 0.0000000000000000e+00  2.9290349430915893e-02 -1.4853772769573639e+00 0.0000000000000000e+00  3.7326971986719165e-02 3.0517439302113329e+00 0.0000000000000000e+00  3.5462501579299872e-02 8.0535909634764191e-01 0.0000000000000000e+00  -5.7793802852496457e-04 -8.4210598329093381e-04 0.0000000000000000e+00  8.9206066069465488e-04 1.8900702171508591e-04 0.0000000000000000e+00  -4.5321352678458286e-04 -5.2561152187132561e-04 0.0000000000000000e+00  -3.1274863793722733e-02 -1.9976910801351322e-01 0.0000000000000000e+00  9.7794602840492657e-04 -5.2413484269072600e-04 0.0000000000000000e+00  1.7808879316725877e-05 -6.9585024790638542e-05 0.0000000000000000e+00  5.1409067152150700e-01 2.7177235100760888e+00 0.0000000000000000e+00  1.1638125706339957e-01 -1.6099279159369366e+00 0.0000000000000000e+00  -1.0831696468436869e-01 1.5352139967979725e+00 0.0000000000000000e+00  3.8991867664091566e-04 -8.9962072235060919e-04 0.0000000000000000e+00  -3.7335837253052243e-02 -1.7824562138409177e+00 0.0000000000000000e+00  -9.5408558756702566e-02 1.2923284081536197e+00 0.0000000000000000e+00  -4.4693326246947832e-03 -9.8784992153188016e-04 0.0000000000000000e+00  8.3674367520089696e-04 -1.5898790770625120e+00 0.0000000000000000e+00  6.7470764368425251e-02 2.1828121584344080e+00 0.0000000000000000e+00  1.4014737484464357e-01 2.2284111393966115e+00 0.0000000000000000e+00  -3.0753722491451951e-01 3.2290642556817479e+00 0.0000000000000000e+00  1.4759990113925407e-03 1.3906645282799326e+00 0.0000000000000000e+00  4.9683991202933764e-01 3.5716848345540004e+00 0.0000000000000000e+00  8.5009510431419522e-02 -1.2922622916445132e+00 0.0000000000000000e+00  1.4534553042090803e-01 1.6817048036192337e+00 0.0000000000000000e+00  -5.0250699981478730e-01 1.2162728426177427e+00 0.0000000000000000e+00  1.2472662419127969e-02 2.1255355867531245e+00 0.0000000000000000e+00  1.7971956420306853e-02 -1.8057826053240824e+00 0.0000000000000000e+00  1.2710463907398309e-02 2.2051747968799167e+00 0.0000000000000000e+00  1.1746729791894217e+00 3.3635768106742314e+00 0.0000000000000000e+00  -1.1980630540844785e-01 2.7489584496208408e-01 0.0000000000000000e+00  -1.4163179513295848e-01 2.3140192583355432e+00 0.0000000000000000e+00  -1.2397012876570584e-01 4.8962166004727178e-02 0.0000000000000000e+00  8.2884171896032380e-02 5.4492758740379177e-01 0.0000000000000000e+00  1.0853493916761868e-05 3.7499986824605866e-06 0.0000000000000000e+00  -8.7032587512420956e-01 2.9028472914738259e+00 0.0000000000000000e+00  -5.1749351196784796e-02 2.1356554814566602e+00 0.0000000000000000e+00  1.1147877731394921e-02 3.8763201666874686e-01 0.0000000000000000e+00  -9.2508932130352401e-03 -1.3755469742929065e+00 0.0000000000000000e+00  -1.0572423974998007e-02 8.8560452885784335e-01 0.0000000000000000e+00  -8.2584369700438948e-02 1.7142133706934390e+00 0.0000000000000000e+00  1.1784587645614474e-02 -1.8506032973676034e+00 0.0000000000000000e+00  -2.3340425863491210e-01 2.2103513472905112e+00 0.0000000000000000e+00  7.5312662652368106e-02 -2.0578175726129735e+00 0.0000000000000000e+00  -8.7599668460794974e-03 2.9903762108714595e-04 0.0000000000000000e+00  -5.9624619384481520e-02 1.9333638109152347e+00 0.0000000000000000e+00  7.0241130405579597e-02 -1.8219228195540198e+00 0.0000000000000000e+00  1.4772611705417463e-01 8.9782775246169871e-02 0.0000000000000000e+00  2.0049118827845921e-01 -2.2427621796193113e+00 0.0000000000000000e+00  5.7669887074183031e-02 -6.2846348123118578e-01 0.0000000000000000e+00  -2.9875857876075083e-02 2.0361863841987620e+00 0.0000000000000000e+00  8.8882740751664510e-02 -1.8367929431665482e+00 0.0000000000000000e+00  7.7849991118651107e-01 -1.3259061779671923e+00 0.0000000000000000e+00  3.5211766615408696e-01 -1.8534997754692104e+00 0.0000000000000000e+00  2.4705281211534308e-01 1.8256997154403620e+00 0.0000000000000000e+00  6.4773154114401002e-02 -7.9278581739691023e-01 0.0000000000000000e+00  -5.5512589254458149e-04 -6.8321466082860835e-05 0.0000000000000000e+00  3.7651072572955071e-03 -5.8743816530583946e-04 0.0000000000000000e+00  -2.2912605559290103e-01 -1.5455356127105275e+00 0.0000000000000000e+00  -1.0864095913029419e-01 -2.2404491030105746e+00 0.0000000000000000e+00  2.3448715310308779e-04 -5.5564764432854293e-04 0.0000000000000000e+00  -1.2243767243220796e-01 -1.8550221753918616e+00 0.0000000000000000e+00  -3.4044954878061952e-02 1.0245592175133922e+00 0.0000000000000000e+00  -4.9041620287293745e-02 -1.3831032420937614e-04 0.0000000000000000e+00  -4.0244161097641477e-04 -2.3457276474144549e-04 0.0000000000000000e+00  -8.3281774768433753e-04 7.5311978374148351e-04 0.0000000000000000e+00  2.8730993784947850e-02 2.2483144854707517e+00 0.0000000000000000e+00  2.0927954880521963e-02 2.1660063980545980e+00 0.0000000000000000e+00  8.9577013105146666e-02 -1.2598767387144909e+00 0.0000000000000000e+00  3.7553670630737182e-02 1.0250126550194429e+00 0.0000000000000000e+00  9.7992581236403201e-03 -1.3826243917536158e+00 0.0000000000000000e+00  1.8222248387345753e-02 -1.7102571669048565e+00 0.0000000000000000e+00  1.3445939624323528e-03 1.4467687955365752e-04 0.0000000000000000e+00  6.2825733358255498e-01 1.2631096972982001e-01 0.0000000000000000e+00  6.0797620099684445e-02 -9.2801415826789213e-01 0.0000000000000000e+00  -2.6001993019133168e-04 -8.9936867210865887e-04 0.0000000000000000e+00  6.6392756617345114e-04 -6.9649545810978588e-04 0.0000000000000000e+00  4.9731143243696943e-04 -5.3410876309106954e-04 0.0000000000000000e+00  -8.9842368336442806e-04 -1.0991306484385288e-03 0.0000000000000000e+00  -2.6215587608245557e-03 -9.9892154174369011e-04 0.0000000000000000e+00  2.2121954001792902e-06 -3.7410326228855916e-05 0.0000000000000000e+00  6.7291625593483500e-05 -3.8587155755581139e-04 0.0000000000000000e+00  -5.5649633018640932e-04 -1.0104837090727280e-03 0.0000000000000000e+00  2.1354575268525339e-01 -2.9965933695114405e-01 0.0000000000000000e+00  -7.1993742372965644e-02 -1.0519474083717364e+00 0.0000000000000000e+00  -2.5387524864409156e-01 3.2982233063533939e-01 0.0000000000000000e+00  4.9982873143643747e-02 -8.5797496226058478e-01 0.0000000000000000e+00  8.1715413000456094e-02 -1.8675972723468948e-01 0.0000000000000000e+00  9.2769669375372048e-04 -6.2069002870969404e-05 0.0000000000000000e+00  -1.6200874658563953e+00 -4.6171366825295879e-01 0.0000000000000000e+00  -3.5281420059520674e-01 -3.3029351020599074e-01 0.0000000000000000e+00  4.5502578001308823e-02 -1.7996908445807336e+00 0.0000000000000000e+00  -1.8240756768808283e-01 -2.0474723983409526e+00 0.0000000000000000e+00  -1.0426615006211446e+00 -4.7672496818786697e-01 0.0000000000000000e+00  -1.5395235949916689e-01 2.8498536819597514e-01 0.0000000000000000e+00  -4.0432650094010270e-01 -1.1601026598433106e+00 0.0000000000000000e+00  4.9066580784090519e-01 -7.1428221844861539e-01 0.0000000000000000e+00  -1.0017651927478410e-01 -1.2782478027453017e+00 0.0000000000000000e+00  1.7230511308589613e-01 1.8208002756708193e+00 0.0000000000000000e+00  -7.2263744417349215e-02 -2.0074266888326417e+00 0.0000000000000000e+00  3.3318318384836371e-02 2.3774566138000575e+00 0.0000000000000000e+00  -9.0005243008705549e-01 -1.4686363007014562e+00 0.0000000000000000e+00  -5.1913739430319884e-02 -2.1553602790382689e+00 0.0000000000000000e+00  7.6242602421171431e-03 1.9647645216485212e+00 0.0000000000000000e+00  4.2059865451748057e-02 -1.1475045138386872e+00 0.0000000000000000e+00  6.0807274141008276e-02 -1.6161579539981208e+00 0.0000000000000000e+00  1.4011208846545203e-01 -1.0421846341371366e+00 0.0000000000000000e+00  1.7846852068771371e+00 9.2617307411628447e-01 0.0000000000000000e+00  8.2193892713647063e-02 1.8892266252357115e+00 0.0000000000000000e+00  1.9946664301898460e-02 -2.4053695909176782e+00 0.0000000000000000e+00  5.2769494687824867e-02 1.2457775287283799e+00 0.0000000000000000e+00  -3.3113255217714639e-02 3.7411546960513598e-01 0.0000000000000000e+00  -7.0522194234514182e-03 2.1006081581664420e+00 0.0000000000000000e+00  -1.2224916341653161e-02 5.5549698126312586e-01 0.0000000000000000e+00  -1.8685624560893010e-02 1.2075720212784338e+00 0.0000000000000000e+00  4.2204646601966678e-01 1.2158083179772832e+00 0.0000000000000000e+00  -3.6690642594605083e-01 -5.1535614030278336e-02 0.0000000000000000e+00  1.6792568423169571e-01 -4.6670954648263707e-01 0.0000000000000000e+00  -9.3161029447715610e-03 1.2799154897431757e+00 0.0000000000000000e+00  -6.3047986353949509e-02 3.2256722488712380e-01 0.0000000000000000e+00  3.6415511133348864e-02 -1.7594259863504351e+00 0.0000000000000000e+00  4.6243484060910098e-02 6.2596207972157492e-01 0.0000000000000000e+00  -2.2549281297790527e-01 2.7249956453000390e-01 0.0000000000000000e+00  -6.5710238804809945e-02 1.7803626256994902e+00 0.0000000000000000e+00  3.4555677420029497e-02 -1.1887872834632156e-01 0.0000000000000000e+00  -3.8550885924804004e-02 -4.3789729920623227e-01 0.0000000000000000e+00  4.8041247296300549e-02 1.4069268640504000e+00 0.0000000000000000e+00  -5.9863359749937173e-01 1.1245327119541486e-01 0.0000000000000000e+00  1.0054708257547238e+00 -5.4250043572781326e-01 0.0000000000000000e+00  1.8310123908224372e-02 -2.1133387625563365e+00 0.0000000000000000e+00  3.4905814699797769e-02 -1.7059833264344189e+00 0.0000000000000000e+00  -1.7723136166189951e-02 -2.3529197788507537e+00 0.0000000000000000e+00  -5.6103615370313131e-01 -2.0854572243502184e-01 0.0000000000000000e+00  -9.9282993492253890e-02 1.3767464598015411e+00 0.0000000000000000e+00  1.0515728623810718e+00 1.4279156706184879e+00 0.0000000000000000e+00  3.0852679967690433e-01 7.8955850333734745e-01 0.0000000000000000e+00  -1.0986756907430269e-01 -7.0057618371234265e-01 0.0000000000000000e+00  7.1957094572182079e-02 -6.4167410713571649e-01 0.0000000000000000e+00  -8.6610042560307784e-02 -2.1272436832603110e+00 0.0000000000000000e+00  1.3362796610500069e-01 2.1740124852385438e+00 0.0000000000000000e+00  5.3246181916996940e-02 2.3035215811944552e+00 0.0000000000000000e+00  -7.3839641331014408e-02 1.9141517276345819e+00 0.0000000000000000e+00  1.1472056651991622e-01 -1.9369269475781865e+00 0.0000000000000000e+00  7.2878937153302856e-03 9.6244903729120357e-01 0.0000000000000000e+00  8.6818570351765184e-02 -2.0830555673176931e+00 0.0000000000000000e+00  -6.9911936358662954e-02 1.7643970639657758e+00 0.0000000000000000e+00  -8.6752724505879675e-02 2.2293750486314563e+00 0.0000000000000000e+00  5.0283145302003884e-01 2.3556626658079121e+00 0.0000000000000000e+00  5.6182489182422433e-02 -7.8043401699422388e-01 0.0000000000000000e+00  -2.0125885974422167e-01 2.1925529979639840e+00 0.0000000000000000e+00  -1.4763070214216432e+00 2.3198583734792071e+00 0.0000000000000000e+00  -4.3635508840319442e-02 -1.9167699306525776e+00 0.0000000000000000e+00  3.9626339777950874e-02 -5.0375078338920010e-01 0.0000000000000000e+00  -1.3159596771350540e-01 2.9540515948712089e+00 0.0000000000000000e+00  5.6471779181454330e-02 -3.2036838218133679e-01 0.0000000000000000e+00  2.9152928554349809e-04 -4.5884602467653101e-04 0.0000000000000000e+00  -1.1079177868568071e-01 -8.3527621603731683e-01 0.0000000000000000e+00  6.6824762245146940e-01 -1.4837828302913432e+00 0.0000000000000000e+00  -2.5172906193995637e-02 -2.1863486530251359e+00 0.0000000000000000e+00  -5.8858656006530972e-02 -1.5003438292164046e+00 0.0000000000000000e+00  1.6147817746472876e-01 2.3018320189246704e+00 0.0000000000000000e+00  1.4635381758952857e-02 2.4576841427766274e-01 0.0000000000000000e+00  -4.0390565444868619e-04 -8.3637944594255810e-04 0.0000000000000000e+00  3.3262660313909405e-02 -1.6442698882845015e+00 0.0000000000000000e+00  1.6355530705520754e-01 -1.8241846681801130e+00 0.0000000000000000e+00  4.5157105865489613e-02 4.1537260772155371e-01 0.0000000000000000e+00  -3.6073765440064953e-04 -9.3574319001610371e-04 0.0000000000000000e+00  -1.5011430504633577e-01 3.2087750697176898e-01 0.0000000000000000e+00  -1.5020480406475828e-01 2.2187631373994603e+00 0.0000000000000000e+00  1.4027954600818687e-01 -1.2063695590665351e+00 0.0000000000000000e+00  6.9593276121894644e-03 1.0318392751543304e+00 0.0000000000000000e+00  1.1894124304209983e-03 1.7075045159070722e-04 0.0000000000000000e+00  -1.1007058589023639e+00 2.5821889902461397e+00 0.0000000000000000e+00  1.5762356952581677e-01 1.5650566372712045e+00 0.0000000000000000e+00  1.1366975211649934e-01 1.0476135776799724e+00 0.0000000000000000e+00  -1.4684562090245009e-02 -4.1049316522431302e-03 0.0000000000000000e+00  -1.1832726304234343e-02 -1.8555429921486672e+00 0.0000000000000000e+00  1.9051015265323882e-02 3.2970941766991735e-01 0.0000000000000000e+00  -6.1728130906075696e-01 2.9075943551486025e+00 0.0000000000000000e+00  -2.0430613965972413e-01 1.6667764762088517e+00 0.0000000000000000e+00  -1.0680169887605517e-01 -1.5538025504244437e+00 0.0000000000000000e+00  3.2083451673592334e-01 -3.4978331814856334e-01 0.0000000000000000e+00  -1.9570507743227555e-01 -9.2501510057245839e-01 0.0000000000000000e+00  -2.7252561260963971e-02 1.2374262480037410e+00 0.0000000000000000e+00  1.4983658778262288e-02 -1.6605916379770482e+00 0.0000000000000000e+00  6.7938603180443108e-04 -6.2517453858825021e-04 0.0000000000000000e+00  -5.5573626534698228e-01 2.0756331887480424e+00 0.0000000000000000e+00  5.3122831927249881e-01 2.6294572304031267e+00 0.0000000000000000e+00  2.2149460972912616e-03 -1.5451526743711537e+00 0.0000000000000000e+00  -3.0873778567902960e-01 -6.5017836052293831e-01 0.0000000000000000e+00  3.4917973092556502e-02 4.3615963006549979e-01 0.0000000000000000e+00  -1.8343081479369319e-02 -2.2299321479190750e+00 0.0000000000000000e+00  -1.3495162181958627e-05 -4.3535922595623158e-05 0.0000000000000000e+00  8.1051978043525374e-03 2.0945792024479597e+00 0.0000000000000000e+00  3.7483688728210625e-02 1.4809822925168710e+00 0.0000000000000000e+00  7.9031394821307818e-02 2.2111101063171823e+00 0.0000000000000000e+00  2.1765222682796454e-04 6.8456508112335591e-04 0.0000000000000000e+00  -1.8555382064850492e-02 -1.4259475997616389e+00 0.0000000000000000e+00  -2.6300810180847685e-02 1.2539883267691485e+00 0.0000000000000000e+00  9.1027658676505085e-01 3.6030975365980655e+00 0.0000000000000000e+00  1.1702684509115456e-03 -1.9349434513648414e+00 0.0000000000000000e+00  -6.4075938283563181e-03 1.1840542390634106e+00 0.0000000000000000e+00  2.8463179950881500e-02 2.1230832666167887e-01 0.0000000000000000e+00  -7.3129563329912398e-02 1.8797002475820885e+00 0.0000000000000000e+00  -2.3153156736657635e-02 -1.1346059150721659e+00 0.0000000000000000e+00  2.9925686223643239e-01 -6.0886543327558840e-01 0.0000000000000000e+00  7.8274473256834953e-02 2.2798133289170490e+00 0.0000000000000000e+00  7.1696090605310334e-02 2.2099284895686033e-01 0.0000000000000000e+00  -3.9194574924497960e-01 -1.5441906949576834e+00 0.0000000000000000e+00  1.8235107735774278e-01 3.0607593237598505e+00 0.0000000000000000e+00  1.1770874834537969e-01 -1.2067026873341029e+00 0.0000000000000000e+00  -4.5100796500729079e-01 -7.8587304335039920e-01 0.0000000000000000e+00  9.3101661326324581e-02 -2.3516510168287486e+00 0.0000000000000000e+00  5.4703747681225053e-02 -1.5257694841825140e+00 0.0000000000000000e+00  4.4365959323484211e-01 1.6333216596182107e+00 0.0000000000000000e+00  -1.6913218129919864e-04 3.5391273774822184e-04 