<?xml version="1.0"?>
<VTKFile type="UnstructuredGrid"  version="0.1"  >
<UnstructuredGrid>
<Piece  NumberOfPoints="5089" NumberOfCells="9865">
<Points>
<DataArray  type="Float64"  NumberOfComponents="3"  format="ascii">0 1.5 0  0 0 0  0.1029058182573948 0 0  0.1029058182573948 0.02393156642875577 0  0.1251489251828899 0.06631226582407952 0  0.1645395112957465 0.09350162426854149 0  0.2120536680255323 0.0992708874098054 0  0.2568064746731156 0.08229838658936564 0  0.288545602565321 0.04647231720437685 0  0.3 0 0  0.51 0 0  0.5220577136594005 0.04499999999999999 0  0.555 0.07794228634059948 0  0.6 0.09 0  0.645 0.07794228634059946 0  0.6779422863405995 0.04499999999999999 0  0.6899999999999999 0 0  0.8924037639192813 0 0  0.8924037639192813 0.02287028598995353 0  0.9110081306187559 0.06465637775217206 0  0.9450000000000001 0.09526279441628825 0  0.9885018690405581 0.1093974084905101 0  1.033991869381244 0.1046162167924669 0  1.073604366699474 0.08174593080251337 0  1.100490000340686 0.04474103073833802 0  1.11 0 0  1.502905818257395 0 0  1.502905818257395 0.02393156642875577 0  1.52514892518289 0.06631226582407952 0  1.564539511295747 0.09350162426854149 0  1.612053668025532 0.0992708874098054 0  1.656806474673116 0.08229838658936564 0  1.688545602565321 0.04647231720437685 0  1.7 0 0  1.82324056211084 0 0  1.82324056211084 0.02253860454731437 0  1.847611141284377 0.06045996594834066 0  1.888614812938137 0.07918571535047463 0  1.933233201040151 0.07277055962836147 0  1.967300282626494 0.0432512653964478 0  1.98 0 0  2.202905818257395 0 0  2.202905818257395 0.02393156642875577 0  2.22514892518289 0.06631226582407952 0  2.264539511295746 0.09350162426854149 0  2.312053668025532 0.0992708874098054 0  2.356806474673115 0.08229838658936564 0  2.388545602565321 0.04647231720437685 0  2.4 0 0  2.51 0 0  2.522057713659401 0.04499999999999999 0  2.555 0.07794228634059948 0  2.6 0.09 0  2.645 0.07794228634059946 0  2.677942286340599 0.04499999999999999 0  2.69 0 0  3 0 0  3 1.5 0  0 0.75 0  1.5 1.5 0  0 0.375 0  0 0.1875 0  0.75 1.5 0  2.25 1.5 0  3 0.75 0  1.803364316093307 0.8194216192460635 0  0.7085714285714286 0.7914285714285714 0  2.396697907928333 0.698796196655595 0  1.26039230397729 0.6323879781298929 0  1.125 1.5 0  3 1.125 0  0.375 1.5 0  1.418284719659703 1.05567510076647 0  2.625 1.5 0  0 1.125 0  2.4375 1.120298797465005 0  0.4140309460188812 0.4815551607069073 0  0.9375 1.133540466589862 0  1.875 1.5 0  0.4143011358073044 1.085698864192695 0  2.042557228405723 0.4764057674039468 0  3 0.375 0  1.615235786026768 0.4839120951620492 0  0.9172436665953028 0.4786128535408891 0  2.136144598898015 0.9367443054342734 0  2.712089662802327 0.5625 0  1.752709466448716 1.168812671476193 0  2.696461986964791 0.9012929362807449 0  1.307422665144653 0.3094324321200764 0  2.0625 1.24476578117044 0  2.446405755792607 0.3860402512509704 0  0.3158723471199726 0.7836709721106835 0  1.018921994797561 0.831404696897531 0  1.521099871135537 0.7571953762650785 0  2.718190509848388 1.189592528269884 0  0.665307193508031 1.225469494285917 0  1.199897701782483 1.230481185797768 0  0.2233959957266646 1.276604004273335 0  0.6649397520368477 0.3607836886074089 0  0 0.5625 0  2.685543358160364 0.3192521589045413 0  1.775621962986754 0.2975552026784072 0  2.025654700292002 0.7195245521041802 0  0.1961827192748887 0.9897295638426992 0  1.25729921569077 0.8746334216075233 0  1.534142212444284 1.264044413891354 0  1.624439414641745 0.9597398592303362 0  2.117668421489377 0.2641528949307972 0  1.945094170902585 1.053880768096555 0  3 0.1875 0  0.6251639682912251 1.002291403912492 0  0.719601375969486 0.5727782913443102 0  0.2313942916225519 0.3335511938861402 0  0.4687668770508729 0.274248243200137 0  0.5143238740412669 0.6811446824633056 0  1.829350286632844 0.5059917594077202 0  1.082379929992235 0.3249418149194327 0  2.540679850598416 1.305492850437689 0  2.282283153018704 1.279796495628565 0  2.355666841619378 0.9154942188580675 0  0.2114722061938988 0.5448236655965607 0  3 1.3125 0  2.8125 1.5 0  2.263750685400308 0.5173381079832993 0  0.4343085727049624 1.296611441170993 0  1.6875 1.5 0  1.016037518489582 1.324553740130353 0  0.846292314151325 0.9469220663180872 0  1.122827752751251 1.035495517001457 0  1.3125 1.5 0  1.306452909128697 0 0  0.8906638629565067 0.6773217378320744 0  1.517175933126145 0.2981487507037606 0  0.7996957920902151 0.2224603600775558 0  1.446370464174038 0.5785990786868803 0  1.689965192988266 0.6625083927402473 0  0.4864273298880485 0.870473805626289 0  3 0.9375 0  2.831315819563651 1.036097903808422 0  1.106384347284952 0.5163011422226527 0  0.5625 1.5 0  0.9375 1.5 0  0.1875 1.5 0  2.0625 1.5 0  3 0.5625 0  0 0.9375 0  0 1.3125 0  2.4375 1.5 0  2.196044825237544 1.113880351688974 0  2.210431846521007 0.695834380790271 0  0.8262236946704767 1.326155809103077 0  2.523003751809735 0.8349453583788917 0  1.882533682486712 1.30904671408086 0  2.845 0 0  2.813607095438526 0.1837681344374856 0  2.298597604800397 0.280431891689246 0  1.972062138207083 0.8834951655964545 0  1.943392101370151 0.2475417334111557 0  2.828663592588797 0.4267055109367558 0  2.803791026183859 0.7364868569598708 0  2.523250359922468 0.5585816735541729 0  2.602935827188279 1.053310414780935 0  1.692458045540587 1.328962813001376 0  1.232271555781778 0.154950218767993 0  1.36985844680238 1.21899526865025 0  1.785321775315372 1.004919979330962 0  2.534633602602767 0.2439507161942105 0  0.7651985499724481 1.092302611968735 0  2.637828969450683 0.71279922663893 0  1.100469689258933 0.6843495375675052 0  1.315800235513153 0.4755545830105288 0  1.405546076805209 0.1782543944119986 0  2.826282129872177 1.326282129872177 0  0.575884497984488 0.4967904868667201 0  0.1516233666565383 0.826056857120972 0  0.3483704262380678 0.6272257636119053 0  1.568331672486121 1.108640197801574 0  1.475101554186818 0.9082985267599337 0  1.868470483419324 0.6670273102604994 0  0.3467545185571825 0.9433646607171683 0  2.15625 1.373787484318285 0  1.41742615593433 1.367603819494743 0  2.854904919456998 0.8828609574219635 0  0.9476741986655126 0.255395459587152 0  1.267450600339273 1.091056105706913 0  0.114311143675241 0.65625 0  0.65625 1.37859278398136 0  2.170651243108527 0.4023187025489676 0  1.21875 1.380886352874642 0  0.3798992233573569 0.1593768045411093 0  0.9831420651531181 0.9956358347774316 0  1.456186685150796 0.4319140716985383 0  2.586721317152155 0.4269308613840649 0  2.863979293145301 1.178604739864835 0  1.658646098314701 0.8045749301224775 0  1.383553643956373 0.7098158224076794 0  0.154006438477797 1.138458423126247 0  2.856044831401163 0.5977865618779903 0  0.553876003596687 1.130313370813194 0  2.680231675041409 1.360526450748891 0  2.486056782242186 0.9722817331473952 0  1.891212003911469 0.3789027676568836 0  0.8138227412155181 0.37102502168449 0  1.064674644221452 1.192903489156071 0  0.6045358160041144 0.2320910326486189 0  1.194008126159845 0.4081242368041457 0  2.138311355076408 0.5770795769918613 0  0.134142636330111 0.2313017261983794 0  0.8460209454012837 0.8084258449188535 0  0.1293517554287885 0.4305045409359897 0  0.3205820557512212 1.373790064297892 0  0.2928933613730453 1.155196229839076 0  2.404969940572298 1.358123451328196 0  0.9933877375830629 0.5899302104012978 0  2.090287791367255 0.1211621925433303 0  2.904889173308855 0.28125 0  0.1246766077328953 1.375323392267105 0  2.302041695038792 0.7931069109810627 0  2.389228836127323 0.5648368411465005 0  1.886839219693261 1.174850198523801 0  1.96875 1.5 0  2.005259577028834 1.368575570359887 0  2.58746882374347 1.183267841227943 0  1.646515580921743 0.3486369169127919 0  1.980147904783248 0.5942137934419368 0  2.07740167257538 1.055304717195479 0  1.57300338334685 0.6065157750282059 0  1.59375 1.5 0  1.679678032322464 0.2100937046526968 0  2.252673654577562 0.9960348417811178 0  2.17832845930892 0.8178435559778986 0  1.78125 1.5 0  2.021596890434516 0.349571947542988 0  1.79926971381977 0.1752587163176004 0  0.503878860142697 0.3943984894172995 0  1.146622573165596 0.8060813049917908 0  3 1.40625 0  2.649807995179342 0.2020005420916801 0  0.3438742656237004 0.2790576170649142 0  1.546875 1.386334759531577 0  3 0.09375 0  1.320989371181643 0.9800954309611291 0  1.270074893254929 0.7536540780084714 0  2.70770359261854 0.4387759707667409 0  0.5606072232931772 1.296106034499297 0  0.7858104720553775 1.211812834033452 0  2.317237622700128 1.09958886094401 0  2.518665098961854 0.68166123334458 0  1.747777558052355 0.4158756118164814 0  1.683029275145126 1.069756268641544 0  0.46875 1.5 0  2.407758410849746 0.2048845882413086 0  2.396684507181482 1.235853070423643 0  1.919569286509587 0.7755948020085885 0  2.290752654053557 0.4002939182457882 0  0.2367853577638227 0.6856443876677092 0  1.644821718344275 1.219632237269969 0  0 1.03125 0  0.5821665354391095 0.7878606619613046 0  0.6422016866915001 0.674771619551397 0  0.2917070890414653 0.4458139506278615 0  0.7912018819596407 0 0  0.1045102716700244 1.249819735557644 0  1.151091219660612 0.9224858968529193 0  2.719174284445647 1.071883664029489 0  0.7216906855953001 0.918545393630683 0  0.2528020696803429 0.8787006417214202 0  1.726437981314609 0.9055659975386789 0  1.466273966174817 1.158744006060248 0  0.500278661176367 0.9948136517426003 0  1.114706325735654 0.2023659607018325 0  1.193213601931895 0.2926984867334158 0  0.9725372994821596 0.3724679154862157 0  2.214714190066689 0.1991474088029779 0  2.411776451427861 0.8179674328277735 0  1.997105232295531 1.153439169094244 0  0.497834479014996 1.390464488336983 0  0.4532232073331143 0.5868543641678674 0  0.4094710929462204 0.7215160819073434 0  0.2730945637736263 0.1927345247561336 0  2.091452909128697 0 0  1.88727127931541 0.9574017932976476 0  0.7331675361580886 0.4562359341911597 0  0.808798696301996 0.1107204599928528 0  2.794056136375906 0.2935548935723623 0  2.172174128810919 1.263645408055929 0  2.266351953173893 1.389929090293708 0  0.9205129738298803 1.252177379624563 0  2.58760749
[...]
<PointData  Vectors="f_60"> 
<DataArray  type="Float64"  Name="f_60"  NumberOfComponents="3" format="ascii">1.4276716138579895e-04 -5.7225355881777417e-04 0.0000000000000000e+00  3.2565772419362220e-04 1.8229455674903224e-05 0.0000000000000000e+00  3.1432829212282230e-04 5.7362218601524247e-04 0.0000000000000000e+00  2.3704662238250380e-04 5.8781922028269232e-04 0.0000000000000000e+00  -2.0150189967327453e-04 9.2520264427118455e-05 0.0000000000000000e+00  1.0641422478582950e-04 6.5371904974286486e-04 0.0000000000000000e+00  3.3998587731509829e-04 4.9259821140543506e-04 0.0000000000000000e+00  -5.4919749263957628e-05 3.1256406921350731e-04 0.0000000000000000e+00  3.2198075353296517e-04 5.9404258242165922e-04 0.0000000000000000e+00  3.9389706141172411e-04 2.0225318953025711e-04 0.0000000000000000e+00  1.5667921663427151e-04 3.2820721687402998e-04 0.0000000000000000e+00  3.6710100400698463e-04 6.3801065570301342e-04 0.0000000000000000e+00  5.5481220283688357e-05 4.9813057460758997e-04 0.0000000000000000e+00  4.3489259599942024e-05 2.3536540099793860e-04 0.0000000000000000e+00  6.6326312447857121e-06 5.0087013391054058e-04 0.0000000000000000e+00  -2.7299492300561924e-04 5.9609855869379076e-04 0.0000000000000000e+00  -1.3916020061214418e-04 3.8872012058534239e-04 0.0000000000000000e+00  -5.1732315351067323e-04 3.6280640289843117e-04 0.0000000000000000e+00  -2.3078740251443499e-04 8.4680745193583900e-04 0.0000000000000000e+00  -1.5395610011561763e-04 6.3274583324280580e-04 0.0000000000000000e+00  -8.5849955833453142e-05 2.9495714836059105e-04 0.0000000000000000e+00  -1.2888343796219583e-04 5.4037697644210975e-04 0.0000000000000000e+00  2.0597345695145256e-04 4.5395619638904960e-04 0.0000000000000000e+00  3.7112544441130369e-04 2.5214409087406434e-04 0.0000000000000000e+00  -2.0700132705832978e-04 5.4111233100818078e-04 0.0000000000000000e+00  -3.5449438786590070e-04 6.9913835136342195e-04 0.0000000000000000e+00  -3.8056713139562789e-04 3.0342692302351876e-04 0.0000000000000000e+00  -3.3363767748081978e-04 6.0920428234302951e-04 0.0000000000000000e+00  -7.9099863750468010e-05 4.0789462671876923e-04 0.0000000000000000e+00  -1.5383087335635758e-05 4.6609235338614840e-04 0.0000000000000000e+00  -2.1337566646283251e-04 7.1947412081123016e-04 0.0000000000000000e+00  5.4680824734079105e-04 2.8438600818107265e-04 0.0000000000000000e+00  -4.3350394617639170e-04 6.8401130775777813e-04 0.0000000000000000e+00  -2.8781898268297803e-04 8.0940913019800502e-04 0.0000000000000000e+00  -2.3602084529568824e-04 9.7594647893637761e-05 0.0000000000000000e+00  -1.0638676737343930e-04 2.7044467985625685e-04 0.0000000000000000e+00  1.0245877110382940e-04 4.3699879914730255e-04 0.0000000000000000e+00  -2.2383758864719011e-04 6.7590075699274291e-04 0.0000000000000000e+00  6.9731136719568013e-05 5.2943530548968040e-04 0.0000000000000000e+00  2.8208544199620516e-04 4.2036677753090796e-04 0.0000000000000000e+00  -5.2721794842002823e-05 7.4385777685294374e-04 0.0000000000000000e+00  3.6998263014059951e-04 6.3184905702002832e-04 0.0000000000000000e+00  2.8416968257622983e-04 6.9201655027466649e-04 0.0000000000000000e+00  2.6434538635218124e-04 4.3341454636073104e-04 0.0000000000000000e+00  -1.7127769559135774e-04 3.5525498225012970e-04 0.0000000000000000e+00  2.0530519080689174e-04 5.1922530693258851e-04 0.0000000000000000e+00  -4.9950668368492809e-05 1.9322920774033966e-04 0.0000000000000000e+00  -2.0481905605792649e-05 1.0187385475164523e-03 0.0000000000000000e+00  3.5037613821351307e-04 1.0054505450325139e-03 0.0000000000000000e+00  5.7873674335120323e-04 1.3509237745630912e-03 0.0000000000000000e+00  7.5677137461345381e-04 1.2367606781873853e-03 0.0000000000000000e+00  4.1366028449442508e-04 6.7374776776159138e-05 0.0000000000000000e+00  3.2652795781913055e-04 -6.2709992871472903e-05 0.0000000000000000e+00  4.2084466994563082e-05 -2.4299121237899595e-04 0.0000000000000000e+00  -2.8998252009267638e-04 2.0041474993002409e-03 0.0000000000000000e+00  1.3841742255265431e-03 9.3581506075651299e-04 0.0000000000000000e+00  -1.3771707511487694e-02 2.3050047264698897e-03 0.0000000000000000e+00  -1.0759884662618793e-03 1.7751154579305356e-03 0.0000000000000000e+00  -2.9660777575758672e-06 1.5371783005357888e-05 0.0000000000000000e+00  -3.8207956307378299e-05 -6.1507744653847222e-04 0.0000000000000000e+00  -9.7775327241037045e-06 4.5019469771778807e-05 0.0000000000000000e+00  6.8826442842153147e-05 2.3825714047262926e-04 0.0000000000000000e+00  -1.5208390492439307e-05 -3.6337442540870530e-04 0.0000000000000000e+00  -3.8136800356686317e-05 -3.0412031884826312e-04 0.0000000000000000e+00  5.4378540806911590e-04 -4.9572142713340337e-05 0.0000000000000000e+00  1.0263621504611751e-02 1.0249540201481628e+00 0.0000000000000000e+00  8.3604887789507608e-03 -6.1167719948164501e-01 0.0000000000000000e+00  -1.1931937624678616e-02 1.2529395114726782e+00 0.0000000000000000e+00  1.4982138503825782e-02 3.0738070108195842e-01 0.0000000000000000e+00  -4.4269044430212220e-04 -5.3818309548265219e-04 0.0000000000000000e+00  1.3352880707645657e-03 -5.9995946189401593e-05 0.0000000000000000e+00  3.5632990927282477e-05 -3.6375676340493282e-04 0.0000000000000000e+00  -1.3728635926054668e-02 -9.9972282555879893e-02 0.0000000000000000e+00  -6.2652987517690330e-04 -5.4633268932822174e-04 0.0000000000000000e+00  -4.9687002213533502e-06 3.1293786947433168e-06 0.0000000000000000e+00  1.9541915754165484e-01 9.6153934558238463e-01 0.0000000000000000e+00  4.1163307944549490e-02 -6.9643037284058928e-01 0.0000000000000000e+00  -3.6471772491477442e-02 6.5773529175033729e-01 0.0000000000000000e+00  4.2232292529200180e-04 -5.4466153943744165e-04 0.0000000000000000e+00  -1.9875029886932190e-02 -7.0740271424808421e-01 0.0000000000000000e+00  -4.6467166660231506e-02 4.7850008375712888e-01 0.0000000000000000e+00  -4.4187557925390357e-04 1.0839634995491457e-05 0.0000000000000000e+00  -2.1510308097086655e-03 -6.4744275786655292e-01 0.0000000000000000e+00  2.3819914436932502e-02 8.7508611625437949e-01 0.0000000000000000e+00  5.1414751906729755e-02 8.6488681318506344e-01 0.0000000000000000e+00  -1.6048279187845116e-01 1.4672201334323134e+00 0.0000000000000000e+00  3.4315790339075180e-03 5.6273952246376246e-01 0.0000000000000000e+00  1.5139915164799955e-01 1.4889642084510966e+00 0.0000000000000000e+00  3.3156674967604674e-02 -5.7367658487601259e-01 0.0000000000000000e+00  6.2054105643515170e-02 7.2972879229902043e-01 0.0000000000000000e+00  -1.9830367650926362e-01 7.5766897899582608e-01 0.0000000000000000e+00  9.6806758774037119e-03 8.5500181529263486e-01 0.0000000000000000e+00  2.4359675661960998e-03 -7.3490987032585520e-01 0.0000000000000000e+00  6.1294485497824921e-03 8.9285749680823767e-01 0.0000000000000000e+00  4.2979253691416180e-01 1.3555246161584147e+00 0.0000000000000000e+00  -4.5093186618094500e-02 1.7303962620745908e-01 0.0000000000000000e+00  -4.6940072270954376e-02 9.4040385125281489e-01 0.0000000000000000e+00  -4.5027155545390669e-02 -4.0820743834251078e-02 0.0000000000000000e+00  3.3305248176440219e-02 1.7678308224177747e-01 0.0000000000000000e+00  2.6260675618003285e-06 2.5520432934409259e-05 0.0000000000000000e+00  -3.9558237344075109e-01 1.3364399694144276e+00 0.0000000000000000e+00  -2.6208688251593049e-02 8.5986719482278673e-01 0.0000000000000000e+00  6.1408780085866121e-04 1.6144677687999398e-01 0.0000000000000000e+00  -4.7268804421009992e-03 -5.6871396010912778e-01 0.0000000000000000e+00  -2.0322076582375511e-03 3.6195012275736993e-01 0.0000000000000000e+00  -2.6298242555924046e-02 7.2034238743789047e-01 0.0000000000000000e+00  3.4941683621820996e-03 -7.4773958207857871e-01 0.0000000000000000e+00  -1.0221002235121085e-01 9.6521512818072674e-01 0.0000000000000000e+00  3.3898165484194623e-02 -8.2854573839260193e-01 0.0000000000000000e+00  -5.8771467824124818e-03 8.2478413776265372e-05 0.0000000000000000e+00  -1.6304305450042911e-02 7.9535557613234431e-01 0.0000000000000000e+00  2.5066035486630011e-02 -7.6112168814396497e-01 0.0000000000000000e+00  5.8293797621735477e-02 1.0953868986664422e-01 0.0000000000000000e+00  6.8986364664646277e-02 -8.9322095172167171e-01 0.0000000000000000e+00  2.0721431361040855e-02 -2.3187703601577350e-01 0.0000000000000000e+00  -1.7115512188439590e-02 8.4846467674113357e-01 0.0000000000000000e+00  3.5755319437355174e-02 -7.1251976056973687e-01 0.0000000000000000e+00  3.3524796451091154e-01 -6.9478217757815586e-01 0.0000000000000000e+00  1.4614089629213053e-01 -6.2981110251609473e-01 0.0000000000000000e+00  8.5520725271136078e-02 8.2583942140552602e-01 0.0000000000000000e+00  2.5091961755641629e-02 -2.9197937690455494e-01 0.0000000000000000e+00  1.5658061358356922e-03 8.1275555906873523e-05 0.0000000000000000e+00  5.8068164341822451e-04 -4.6294119963079358e-04 0.0000000000000000e+00  -8.1158341551775370e-02 -6.6756947803635303e-01 0.0000000000000000e+00  -4.7166728826217669e-02 -8.8343814401585707e-01 0.0000000000000000e+00  1.2393204153846987e-04 -3.3952942396991363e-04 0.0000000000000000e+00  -4.7685504442716881e-02 -6.9386079294385761e-01 0.0000000000000000e+00  -1.1100780287583715e-02 4.0240175256303479e-01 0.0000000000000000e+00  -2.0096343473020660e-02 -2.7892427719790218e-02 0.0000000000000000e+00  -3.7774926891093890e-04 -2.3484391882701189e-04 0.0000000000000000e+00  -7.2618226699652745e-04 5.4218711472806165e-04 0.0000000000000000e+00  1.4583700482264757e-02 9.1531642217425668e-01 0.0000000000000000e+00  -6.7854046582565934e-03 8.8457848374590176e-01 0.0000000000000000e+00  3.3081539321519568e-02 -4.9188789081225714e-01 0.0000000000000000e+00  1.1154078402301633e-02 4.3324418021079952e-01 0.0000000000000000e+00  1.8202951781922316e-03 -5.5801321770523371e-01 0.0000000000000000e+00  2.9269421964131345e-03 -6.9525930158495575e-01 0.0000000000000000e+00  9.0187663889192572e-04 -1.0930663948573945e-06 0.0000000000000000e+00  3.0549574086806980e-01 -1.5332420680542178e-01 0.0000000000000000e+00  2.3872554042639563e-02 -3.5006584876028007e-01 0.0000000000000000e+00  -4.3952855793892717e-04 -6.6828073179037075e-04 0.0000000000000000e+00  4.7907216055376715e-04 -5.2704851522178430e-04 0.0000000000000000e+00  2.8273789793547687e-04 -2.8018529565392204e-04 0.0000000000000000e+00  -5.5212265458998361e-04 -7.0675743131351412e-04 0.0000000000000000e+00  -2.0915861632429201e-04 -1.8446827156271789e-04 0.0000000000000000e+00  -6.6843883652593259e-06 -1.0946720204398865e-05 0.0000000000000000e+00  1.4283709822511120e-05 -7.1374101402059450e-05 0.0000000000000000e+00  3.8966151286120432e-04 -7.3390650798106172e-04 0.0000000000000000e+00  9.6371563922948239e-02 -2.1891271757868555e-01 0.0000000000000000e+00  -1.3358342521318308e-02 -4.0937534268454956e-01 0.0000000000000000e+00  -9.4044587904893409e-02 3.9435682666451866e-02 0.0000000000000000e+00  5.8509245353234172e-02 -3.7061455968794255e-01 0.0000000000000000e+00  3.4509635437260891e-02 -9.6005980190708565e-02 0.0000000000000000e+00  1.4189210673421714e-03 2.5616626204764368e-04 0.0000000000000000e+00  -7.2845318163257355e-01 -2.7779325000434152e-01 0.0000000000000000e+00  -1.4924757065222932e-01 -3.0117121795418178e-01 0.0000000000000000e+00  2.2999709389964946e-02 -7.1207663053772108e-01 0.0000000000000000e+00  -7.4134951467689642e-02 -8.3785316456455405e-01 0.0000000000000000e+00  -3.6879994766076329e-01 -1.9571773604696022e-01 0.0000000000000000e+00  -9.8915644225051544e-03 1.6861573423948847e-01 0.0000000000000000e+00  -1.2558142583476706e-01 -4.0848028339272519e-01 0.0000000000000000e+00  2.3304576764650381e-01 -5.1359010863730327e-02 0.0000000000000000e+00  -4.3947634626978892e-02 -5.4335650127241075e-01 0.0000000000000000e+00  3.8795595519378244e-02 6.8252293958850985e-01 0.0000000000000000e+00  -3.6110557506058759e-02 -8.3237686399319288e-01 0.0000000000000000e+00  1.4183624213627620e-02 9.6647325096243630e-01 0.0000000000000000e+00  -3.6055084638086121e-01 -6.6302232651892934e-01 0.0000000000000000e+00  -2.7862948362558426e-02 -8.8924866161692495e-01 0.0000000000000000e+00  -1.6200796327387326e-02 7.6643765224005589e-01 0.0000000000000000e+00  1.3854376234391614e-02 -4.5192972712167401e-01 0.0000000000000000e+00  2.1873380832661157e-02 -6.8182440638609443e-01 0.0000000000000000e+00  5.7620170361386787e-02 -3.9974400650968450e-01 0.0000000000000000e+00  7.2276348091447884e-01 -2.7582509979304914e-01 0.0000000000000000e+00  3.4434893295968473e-02 7.9182468195937539e-01 0.0000000000000000e+00  5.1965424825329478e-03 -9.7770287587947691e-01 0.0000000000000000e+00  2.3892342084330526e-02 4.7533245567673443e-01 0.0000000000000000e+00  -1.0109358745868342e-02 1.6847456608865868e-01 0.0000000000000000e+00  -4.0512834460442165e-04 8.5040816914568818e-01 0.0000000000000000e+00  -4.2880568311155689e-03 2.3513831986163836e-01 0.0000000000000000e+00  -3.9836726026730093e-03 4.9336633336628355e-01 0.0000000000000000e+00  1.6942108190908348e-01 4.0091275876222543e-01 0.0000000000000000e+00  -1.2527763273608963e-01 -1.1497813712408171e-01 0.0000000000000000e+00  1.4082558569419062e-01 -1.8781319804012361e-01 0.0000000000000000e+00  -7.2418137630447972e-03 5.1397834463976066e-01 0.0000000000000000e+00  -2.3737218999427611e-02 1.6228389631401705e-01 0.0000000000000000e+00  1.0665836903371858e-02 -7.2420421815558800e-01 0.0000000000000000e+00  1.9672887124067974e-03 3.1205574326586150e-01 0.0000000000000000e+00  -9.0907609035139642e-02 2.2828093870987251e-01 0.0000000000000000e+00  -3.7216354691825111e-02 7.7319278624161214e-01 0.0000000000000000e+00  6.2112775566742356e-03 -1.1168455886967346e-01 0.0000000000000000e+00  -1.6208214853670386e-02 -1.5621839479300070e-01 0.0000000000000000e+00  1.1734900681355669e-02 5.8760213547040419e-01 0.0000000000000000e+00  -2.4792303176902858e-01 -2.3243883013080466e-01 0.0000000000000000e+00  5.0519064129758551e-01 -2.6053763595966212e-01 0.0000000000000000e+00  6.0010649868297555e-03 -8.5458759312683685e-01 0.0000000000000000e+00  9.5692100856130564e-03 -6.8417623985088316e-01 0.0000000000000000e+00  -1.1934528884131464e-02 -9.6509964473920562e-01 0.0000000000000000e+00  -1.6630957277231068e-01 -1.7241965367997336e-01 0.0000000000000000e+00  -3.2458397080900522e-02 5.2441553487048509e-01 0.0000000000000000e+00  4.8413881435136025e-01 9.7235461635883502e-01 0.0000000000000000e+00  1.3866213690044488e-01 1.7442116284382661e-01 0.0000000000000000e+00  -4.2594030985233539e-02 -2.3562138341815334e-01 0.0000000000000000e+00  2.4781445202060940e-02 -2.3524812185343164e-01 0.0000000000000000e+00  -4.2511466737156112e-02 -8.8106213156570357e-01 0.0000000000000000e+00  4.6274442781027873e-02 8.6039516913803860e-01 0.0000000000000000e+00  3.0545818161071416e-02 9.3960884256130028e-01 0.0000000000000000e+00  -3.8241253458250149e-02 8.2469180001054021e-01 0.0000000000000000e+00  4.2985961233996318e-02 -8.1487324977960418e-01 0.0000000000000000e+00  4.3911460971176770e-03 3.9494489568723906e-01 0.0000000000000000e+00  2.6140520772110834e-02 -8.5710187792561821e-01 0.0000000000000000e+00  -2.4852695034629401e-02 7.6536877755541755e-01 0.0000000000000000e+00  -2.5859053040592717e-02 9.0054583661350007e-01 0.0000000000000000e+00  2.3941991416794703e-01 9.8041925313258471e-01 0.0000000000000000e+00  1.9968791390710599e-02 -3.4160562020914748e-01 0.0000000000000000e+00  -6.7008845994473834e-02 8.5685963445474100e-01 0.0000000000000000e+00  -6.0983046396349683e-01 4.7867444378881530e-01 0.0000000000000000e+00  3.9478123864197644e-03 -7.4703472864833309e-01 0.0000000000000000e+00  2.3127209526546788e-02 -1.7434482982754651e-01 0.0000000000000000e+00  -8.1385161077745183e-02 1.2124519687729787e+00 0.0000000000000000e+00  2.6535014068070528e-02 -1.5245337729554212e-01 0.0000000000000000e+00  1.4099109980375216e-04 -3.2010711632329266e-04 0.0000000000000000e+00  -2.5298968251097467e-02 -3.2568511668775418e-01 0.0000000000000000e+00  3.1173790224406850e-01 -3.8845011576986482e-01 0.0000000000000000e+00  -1.2552402470115074e-02 -8.8800188419334503e-01 0.0000000000000000e+00  -2.0236160143246782e-02 -6.2182231057176662e-01 0.0000000000000000e+00  5.9593025793599791e-02 9.6117970746907222e-01 0.0000000000000000e+00  4.8565896034187071e-03 9.3274423673917667e-02 0.0000000000000000e+00  5.0293403930867535e-05 -5.2134726811300523e-04 0.0000000000000000e+00  9.4018869381872084e-03 -6.8782040743243600e-01 0.0000000000000000e+00  8.4278503718629189e-02 -7.2465539896140840e-01 0.0000000000000000e+00  2.4917531371124020e-02 1.4915766138417347e-01 0.0000000000000000e+00  -3.0476340777950650e-04 -6.5642485158388800e-04 0.0000000000000000e+00  -6.5567583079694639e-02 5.4807196378967193e-02 0.0000000000000000e+00  -4.3789645085254347e-02 8.8339632951171831e-01 0.0000000000000000e+00  4.8766678454198346e-02 -4.3805313803817042e-01 0.0000000000000000e+00  3.6577834335608530e-03 4.2224053991095978e-01 0.0000000000000000e+00  1.5408352267489707e-03 2.3419881490345838e-04 0.0000000000000000e+00  -4.6439351306273019e-01 8.3058048166336496e-01 0.0000000000000000e+00  6.5660196522880285e-02 5.5590038046099355e-01 0.0000000000000000e+00  3.5127121408954819e-02 4.7012101028889752e-01 0.0000000000000000e+00  -1.0855315576562887e-02 -4.2429155931749387e-03 0.0000000000000000e+00  -9.4966721116064284e-03 -7.4383491896672482e-01 0.0000000000000000e+00  7.6367629687409616e-03 1.2342448673795541e-01 0.0000000000000000e+00  -2.8172270786290626e-01 1.4307812895986243e+00 0.0000000000000000e+00  -6.9546315472827441e-02 6.2544069256124646e-01 0.0000000000000000e+00  -4.8394330095724671e-02 -6.7748345744768024e-01 0.0000000000000000e+00  1.3561576047238591e-01 2.5428217678868444e-02 0.0000000000000000e+00  -4.1502646514970161e-02 -3.3418012866293051e-01 0.0000000000000000e+00  -1.6155714603700046e-02 4.9257784576308988e-01 0.0000000000000000e+00  3.1543756417302697e-03 -6.6747685619975872e-01 0.0000000000000000e+00  3.5875999066293439e-04 -4.0358327964446384e-04 0.0000000000000000e+00  -2.3360068032049358e-01 9.9254490533265771e-01 0.0000000000000000e+00  2.0826287615077663e-01 1.1085148212215470e+00 0.0000000000000000e+00  6.7840340701886531e-03 -6.2851148667478629e-01 0.0000000000000000e+00  -1.2563870035500491e-01 -3.9191961203339920e-01 0.0000000000000000e+00  1.5656984516534668e-02 1.9321752772479789e-01 0.0000000000000000e+00  -1.2024455163594365e-02 -8.9253962085208693e-01 0.0000000000000000e+00  -1.2462975559277328e-05 1.1231275858231846e-05 0.0000000000000000e+00  8.6684691147525649e-03 8.5350516776270935e-01 0.0000000000000000e+00  1.8442682652894601e-02 5.8239994614038482e-01 0.0000000000000000e+00  4.0257133261710223e-02 9.0243901665909376e-01 0.0000000000000000e+00  5.0659105045764341e-04 5.8445641448801543e-04 0.0000000000000000e+00  -1.2366662224803336e-02 -5.6895238426843420e-01 0.0000000000000000e+00  -7.8510983752960953e-03 5.0030182194612116e-01 0.0000000000000000e+00  3.1758337024357552e-01 1.4203156155385084e+00 0.0000000000000000e+00  -5.0546060245432959e-03 -7.8247216145783927e-01 0.0000000000000000e+00  1.9447903840174648e-03 4.7852754068279563e-01 0.0000000000000000e+00  9.2154374567554945e-03 9.8148143531066101e-02 0.0000000000000000e+00  -2.3803092174022066e-02 7.4117050407918184e-01 0.0000000000000000e+00  -1.1801822731392228e-02 -4.7790029676475249e-01 0.0000000000000000e+00  1.0285724103948680e-01 -1.7389075394304410e-01 0.0000000000000000e+00  4.6836349925531415e-02 9.3257741082813561e-01 0.0000000000000000e+00  2.2477433602816111e-02 6.1401243209013523e-02 0.0000000000000000e+00  -1.6981804387299396e-01 -5.6443362942610820e-01 0.0000000000000000e+00  4.7103897668286709e-02 1.2405052949802540e+00 0.0000000000000000e+00  4.7550450664900566e-02 -4.3386247898982877e-01 0.0000000000000000e+00  -1.5595604963110435e-01 -4.3722627679175308e-01 0.0000000000000000e+00  3.0271532758300430e-02 -9.5522279756446071e-01 0.0000000000000000e+00  1.7509745374816463e-02 -6.3836570945679005e-01 0.0000000000000000e+00  1.3456543685345040e-01 7.2707572053814118e-01 0.0000000000000000e+00  -1.8553261192432791e-04 3.2317877133494316e-