<?xml version="1.0"?>
<VTKFile type="UnstructuredGrid"  version="0.1"  >
<UnstructuredGrid>
<Piece  NumberOfPoints="5089" NumberOfCells="9865">
<Points>
<DataArray  type="Float64"  NumberOfComponents="3"  format="ascii">0 1.5 0  0 0 0  0.1029058182573948 0 0  0.1029058182573948 0.02393156642875577 0  0.1251489251828899 0.06631226582407952 0  0.1645395112957465 0.09350162426854149 0  0.2120536680255323 0.0992708874098054 0  0.2568064746731156 0.08229838658936564 0  0.288545602565321 0.04647231720437685 0  0.3 0 0  0.51 0 0  0.5220577136594005 0.04499999999999999 0  0.555 0.07794228634059948 0  0.6 0.09 0  0.645 0.07794228634059946 0  0.6779422863405995 0.04499999999999999 0  0.6899999999999999 0 0  0.8924037639192813 0 0  0.8924037639192813 0.02287028598995353 0  0.9110081306187559 0.06465637775217206 0  0.9450000000000001 0.09526279441628825 0  0.9885018690405581 0.1093974084905101 0  1.033991869381244 0.1046162167924669 0  1.073604366699474 0.08174593080251337 0  1.100490000340686 0.04474103073833802 0  1.11 0 0  1.502905818257395 0 0  1.502905818257395 0.02393156642875577 0  1.52514892518289 0.06631226582407952 0  1.564539511295747 0.09350162426854149 0  1.612053668025532 0.0992708874098054 0  1.656806474673116 0.08229838658936564 0  1.688545602565321 0.04647231720437685 0  1.7 0 0  1.82324056211084 0 0  1.82324056211084 0.02253860454731437 0  1.847611141284377 0.06045996594834066 0  1.888614812938137 0.07918571535047463 0  1.933233201040151 0.07277055962836147 0  1.967300282626494 0.0432512653964478 0  1.98 0 0  2.202905818257395 0 0  2.202905818257395 0.02393156642875577 0  2.22514892518289 0.06631226582407952 0  2.264539511295746 0.09350162426854149 0  2.312053668025532 0.0992708874098054 0  2.356806474673115 0.08229838658936564 0  2.388545602565321 0.04647231720437685 0  2.4 0 0  2.51 0 0  2.522057713659401 0.04499999999999999 0  2.555 0.07794228634059948 0  2.6 0.09 0  2.645 0.07794228634059946 0  2.677942286340599 0.04499999999999999 0  2.69 0 0  3 0 0  3 1.5 0  0 0.75 0  1.5 1.5 0  0 0.375 0  0 0.1875 0  0.75 1.5 0  2.25 1.5 0  3 0.75 0  1.803364316093307 0.8194216192460635 0  0.7085714285714286 0.7914285714285714 0  2.396697907928333 0.698796196655595 0  1.26039230397729 0.6323879781298929 0  1.125 1.5 0  3 1.125 0  0.375 1.5 0  1.418284719659703 1.05567510076647 0  2.625 1.5 0  0 1.125 0  2.4375 1.120298797465005 0  0.4140309460188812 0.4815551607069073 0  0.9375 1.133540466589862 0  1.875 1.5 0  0.4143011358073044 1.085698864192695 0  2.042557228405723 0.4764057674039468 0  3 0.375 0  1.615235786026768 0.4839120951620492 0  0.9172436665953028 0.4786128535408891 0  2.136144598898015 0.9367443054342734 0  2.712089662802327 0.5625 0  1.752709466448716 1.168812671476193 0  2.696461986964791 0.9012929362807449 0  1.307422665144653 0.3094324321200764 0  2.0625 1.24476578117044 0  2.446405755792607 0.3860402512509704 0  0.3158723471199726 0.7836709721106835 0  1.018921994797561 0.831404696897531 0  1.521099871135537 0.7571953762650785 0  2.718190509848388 1.189592528269884 0  0.665307193508031 1.225469494285917 0  1.199897701782483 1.230481185797768 0  0.2233959957266646 1.276604004273335 0  0.6649397520368477 0.3607836886074089 0  0 0.5625 0  2.685543358160364 0.3192521589045413 0  1.775621962986754 0.2975552026784072 0  2.025654700292002 0.7195245521041802 0  0.1961827192748887 0.9897295638426992 0  1.25729921569077 0.8746334216075233 0  1.534142212444284 1.264044413891354 0  1.624439414641745 0.9597398592303362 0  2.117668421489377 0.2641528949307972 0  1.945094170902585 1.053880768096555 0  3 0.1875 0  0.6251639682912251 1.002291403912492 0  0.719601375969486 0.5727782913443102 0  0.2313942916225519 0.3335511938861402 0  0.4687668770508729 0.274248243200137 0  0.5143238740412669 0.6811446824633056 0  1.829350286632844 0.5059917594077202 0  1.082379929992235 0.3249418149194327 0  2.540679850598416 1.305492850437689 0  2.282283153018704 1.279796495628565 0  2.355666841619378 0.9154942188580675 0  0.2114722061938988 0.5448236655965607 0  3 1.3125 0  2.8125 1.5 0  2.263750685400308 0.5173381079832993 0  0.4343085727049624 1.296611441170993 0  1.6875 1.5 0  1.016037518489582 1.324553740130353 0  0.846292314151325 0.9469220663180872 0  1.122827752751251 1.035495517001457 0  1.3125 1.5 0  1.306452909128697 0 0  0.8906638629565067 0.6773217378320744 0  1.517175933126145 0.2981487507037606 0  0.7996957920902151 0.2224603600775558 0  1.446370464174038 0.5785990786868803 0  1.689965192988266 0.6625083927402473 0  0.4864273298880485 0.870473805626289 0  3 0.9375 0  2.831315819563651 1.036097903808422 0  1.106384347284952 0.5163011422226527 0  0.5625 1.5 0  0.9375 1.5 0  0.1875 1.5 0  2.0625 1.5 0  3 0.5625 0  0 0.9375 0  0 1.3125 0  2.4375 1.5 0  2.196044825237544 1.113880351688974 0  2.210431846521007 0.695834380790271 0  0.8262236946704767 1.326155809103077 0  2.523003751809735 0.8349453583788917 0  1.882533682486712 1.30904671408086 0  2.845 0 0  2.813607095438526 0.1837681344374856 0  2.298597604800397 0.280431891689246 0  1.972062138207083 0.8834951655964545 0  1.943392101370151 0.2475417334111557 0  2.828663592588797 0.4267055109367558 0  2.803791026183859 0.7364868569598708 0  2.523250359922468 0.5585816735541729 0  2.602935827188279 1.053310414780935 0  1.692458045540587 1.328962813001376 0  1.232271555781778 0.154950218767993 0  1.36985844680238 1.21899526865025 0  1.785321775315372 1.004919979330962 0  2.534633602602767 0.2439507161942105 0  0.7651985499724481 1.092302611968735 0  2.637828969450683 0.71279922663893 0  1.100469689258933 0.6843495375675052 0  1.315800235513153 0.4755545830105288 0  1.405546076805209 0.1782543944119986 0  2.826282129872177 1.326282129872177 0  0.575884497984488 0.4967904868667201 0  0.1516233666565383 0.826056857120972 0  0.3483704262380678 0.6272257636119053 0  1.568331672486121 1.108640197801574 0  1.475101554186818 0.9082985267599337 0  1.868470483419324 0.6670273102604994 0  0.3467545185571825 0.9433646607171683 0  2.15625 1.373787484318285 0  1.41742615593433 1.367603819494743 0  2.854904919456998 0.8828609574219635 0  0.9476741986655126 0.255395459587152 0  1.267450600339273 1.091056105706913 0  0.114311143675241 0.65625 0  0.65625 1.37859278398136 0  2.170651243108527 0.4023187025489676 0  1.21875 1.380886352874642 0  0.3798992233573569 0.1593768045411093 0  0.9831420651531181 0.9956358347774316 0  1.456186685150796 0.4319140716985383 0  2.586721317152155 0.4269308613840649 0  2.863979293145301 1.178604739864835 0  1.658646098314701 0.8045749301224775 0  1.383553643956373 0.7098158224076794 0  0.154006438477797 1.138458423126247 0  2.856044831401163 0.5977865618779903 0  0.553876003596687 1.130313370813194 0  2.680231675041409 1.360526450748891 0  2.486056782242186 0.9722817331473952 0  1.891212003911469 0.3789027676568836 0  0.8138227412155181 0.37102502168449 0  1.064674644221452 1.192903489156071 0  0.6045358160041144 0.2320910326486189 0  1.194008126159845 0.4081242368041457 0  2.138311355076408 0.5770795769918613 0  0.134142636330111 0.2313017261983794 0  0.8460209454012837 0.8084258449188535 0  0.1293517554287885 0.4305045409359897 0  0.3205820557512212 1.373790064297892 0  0.2928933613730453 1.155196229839076 0  2.404969940572298 1.358123451328196 0  0.9933877375830629 0.5899302104012978 0  2.090287791367255 0.1211621925433303 0  2.904889173308855 0.28125 0  0.1246766077328953 1.375323392267105 0  2.302041695038792 0.7931069109810627 0  2.389228836127323 0.5648368411465005 0  1.886839219693261 1.174850198523801 0  1.96875 1.5 0  2.005259577028834 1.368575570359887 0  2.58746882374347 1.183267841227943 0  1.646515580921743 0.3486369169127919 0  1.980147904783248 0.5942137934419368 0  2.07740167257538 1.055304717195479 0  1.57300338334685 0.6065157750282059 0  1.59375 1.5 0  1.679678032322464 0.2100937046526968 0  2.252673654577562 0.9960348417811178 0  2.17832845930892 0.8178435559778986 0  1.78125 1.5 0  2.021596890434516 0.349571947542988 0  1.79926971381977 0.1752587163176004 0  0.503878860142697 0.3943984894172995 0  1.146622573165596 0.8060813049917908 0  3 1.40625 0  2.649807995179342 0.2020005420916801 0  0.3438742656237004 0.2790576170649142 0  1.546875 1.386334759531577 0  3 0.09375 0  1.320989371181643 0.9800954309611291 0  1.270074893254929 0.7536540780084714 0  2.70770359261854 0.4387759707667409 0  0.5606072232931772 1.296106034499297 0  0.7858104720553775 1.211812834033452 0  2.317237622700128 1.09958886094401 0  2.518665098961854 0.68166123334458 0  1.747777558052355 0.4158756118164814 0  1.683029275145126 1.069756268641544 0  0.46875 1.5 0  2.407758410849746 0.2048845882413086 0  2.396684507181482 1.235853070423643 0  1.919569286509587 0.7755948020085885 0  2.290752654053557 0.4002939182457882 0  0.2367853577638227 0.6856443876677092 0  1.644821718344275 1.219632237269969 0  0 1.03125 0  0.5821665354391095 0.7878606619613046 0  0.6422016866915001 0.674771619551397 0  0.2917070890414653 0.4458139506278615 0  0.7912018819596407 0 0  0.1045102716700244 1.249819735557644 0  1.151091219660612 0.9224858968529193 0  2.719174284445647 1.071883664029489 0  0.7216906855953001 0.918545393630683 0  0.2528020696803429 0.8787006417214202 0  1.726437981314609 0.9055659975386789 0  1.466273966174817 1.158744006060248 0  0.500278661176367 0.9948136517426003 0  1.114706325735654 0.2023659607018325 0  1.193213601931895 0.2926984867334158 0  0.9725372994821596 0.3724679154862157 0  2.214714190066689 0.1991474088029779 0  2.411776451427861 0.8179674328277735 0  1.997105232295531 1.153439169094244 0  0.497834479014996 1.390464488336983 0  0.4532232073331143 0.5868543641678674 0  0.4094710929462204 0.7215160819073434 0  0.2730945637736263 0.1927345247561336 0  2.091452909128697 0 0  1.88727127931541 0.9574017932976476 0  0.7331675361580886 0.4562359341911597 0  0.808798696301996 0.1107204599928528 0  2.794056136375906 0.2935548935723623 0  2.172174128810919 1.263645408055929 0  2.266351953173893 1.389929090293708 0  0.9205129738298803 1.252177379624563 0  2.58760749
[...]
<PointData  Vectors="f_60"> 
<DataArray  type="Float64"  Name="f_60"  NumberOfComponents="3" format="ascii">-3.9784005117609567e-05 -6.8339339803075074e-04 0.0000000000000000e+00  4.2346931282519608e-04 -6.8093572734507119e-05 0.0000000000000000e+00  4.4687263256869432e-04 5.1839055743356976e-04 0.0000000000000000e+00  5.1615329076995357e-04 7.6891553079588728e-04 0.0000000000000000e+00  -1.8401865659980931e-04 3.7224775674378355e-04 0.0000000000000000e+00  -1.2646601742257078e-04 9.2674206622611068e-04 0.0000000000000000e+00  2.8564031408957372e-04 8.9994741004046437e-04 0.0000000000000000e+00  -6.4072308488534582e-05 4.2223092753351310e-04 0.0000000000000000e+00  6.7876611090159880e-04 1.1990240799258220e-03 0.0000000000000000e+00  7.4918430319404785e-04 4.0040884443683235e-04 0.0000000000000000e+00  1.5411631104578547e-04 3.5050450156832709e-04 0.0000000000000000e+00  5.3724926347386182e-04 8.5700708721275591e-04 0.0000000000000000e+00  1.0494406060486076e-04 8.5034340152340311e-04 0.0000000000000000e+00  7.1299157258336828e-05 3.3157030121662678e-04 0.0000000000000000e+00  8.0795110462926093e-05 6.8274666258886303e-04 0.0000000000000000e+00  -4.6144247388281743e-04 8.5261209757599306e-04 0.0000000000000000e+00  -2.3751937869471155e-04 5.2853930721115177e-04 0.0000000000000000e+00  -7.9352266668252880e-04 2.2543396275465950e-05 0.0000000000000000e+00  -2.6064436826000315e-04 1.3354150205116633e-03 0.0000000000000000e+00  -3.2526785384571940e-04 1.3284950476893547e-03 0.0000000000000000e+00  -2.4044081389519063e-04 4.3156445730769221e-04 0.0000000000000000e+00  -2.0483522360760929e-05 8.5383526170279425e-04 0.0000000000000000e+00  2.5806665556225682e-04 7.2087003541849168e-04 0.0000000000000000e+00  4.1306414286846385e-04 5.3354384385384925e-04 0.0000000000000000e+00  -4.6433641033238302e-04 9.0069962576151837e-04 0.0000000000000000e+00  -8.0098509171563253e-04 8.3668990549676193e-04 0.0000000000000000e+00  -6.5798026364810743e-04 1.3224246945189264e-04 0.0000000000000000e+00  -6.0801978828261877e-04 1.0361685222905917e-03 0.0000000000000000e+00  -4.2300701022153806e-04 8.5386320185160635e-04 0.0000000000000000e+00  9.3869486713171480e-05 8.3343777883846553e-04 0.0000000000000000e+00  -2.5036156573571825e-04 1.1093385894636596e-03 0.0000000000000000e+00  7.6799607459268518e-04 5.2024839043936721e-04 0.0000000000000000e+00  -8.5123633692134153e-04 1.1707122622920502e-03 0.0000000000000000e+00  -4.8326578146987858e-04 7.0310559984038254e-04 0.0000000000000000e+00  -3.9741661915864161e-04 1.1300421797562632e-04 0.0000000000000000e+00  -1.6376462728367474e-04 4.2080023146469825e-04 0.0000000000000000e+00  -1.8795930544018138e-05 7.7378124676758257e-04 0.0000000000000000e+00  -1.5108610240513102e-04 1.2173803590570589e-03 0.0000000000000000e+00  2.1387000218403064e-04 8.0640580263842540e-04 0.0000000000000000e+00  1.6750389578103623e-04 6.0946623205942064e-04 0.0000000000000000e+00  -4.8616110075197852e-04 7.9863909205785306e-04 0.0000000000000000e+00  5.5960761694716160e-04 4.9964950204660667e-04 0.0000000000000000e+00  7.1711706097318860e-04 8.0350315351733687e-04 0.0000000000000000e+00  2.3487957868492790e-04 7.8811661337216789e-04 0.0000000000000000e+00  1.0961670748893933e-04 7.5724462603642747e-04 0.0000000000000000e+00  -1.1787191235172498e-04 6.9622678540758368e-04 0.0000000000000000e+00  1.7962233034343869e-04 -1.1543036923447772e-04 0.0000000000000000e+00  -9.8782002781180211e-05 1.9886508094256274e-03 0.0000000000000000e+00  6.5803424554529899e-04 1.4157837288762941e-03 0.0000000000000000e+00  9.1431950220745468e-04 9.7217931561045963e-04 0.0000000000000000e+00  6.9148672749815108e-04 1.1607345189652654e-03 0.0000000000000000e+00  1.0134042063779461e-03 9.6973582161363682e-04 0.0000000000000000e+00  6.4909637605107683e-04 -3.3729519487557893e-04 0.0000000000000000e+00  2.6355700275807164e-04 -5.9817749830638192e-04 0.0000000000000000e+00  -1.1052064117896328e-04 2.4272648248563843e-03 0.0000000000000000e+00  1.1215597528808582e-03 1.7730606133723882e-04 0.0000000000000000e+00  -9.5959540839051487e-03 -9.6874975206002927e-05 0.0000000000000000e+00  -1.7533853900632611e-03 6.5368485025316548e-04 0.0000000000000000e+00  3.5587322206666212e-06 7.5955946543951087e-06 0.0000000000000000e+00  7.8548184543405359e-05 -7.8215923743795964e-04 0.0000000000000000e+00  6.2005122160266617e-06 2.0410187755865677e-05 0.0000000000000000e+00  1.2002933663785848e-04 4.8009908033523727e-04 0.0000000000000000e+00  5.5964450810897172e-05 -5.0854513451134423e-04 0.0000000000000000e+00  -5.1321858953736872e-05 -5.1596708792825256e-04 0.0000000000000000e+00  4.9059399025721954e-04 -1.4413886568991126e-04 0.0000000000000000e+00  2.3509622648789325e-02 2.0159015555219288e+00 0.0000000000000000e+00  2.0417707250169219e-02 -1.1930605360078843e+00 0.0000000000000000e+00  5.9465550106497173e-03 2.4509706980277386e+00 0.0000000000000000e+00  2.9013725754437617e-02 6.2578758087085951e-01 0.0000000000000000e+00  -5.9167067688034353e-04 -8.2729387864934382e-04 0.0000000000000000e+00  1.7212605520776044e-03 1.9223962618330647e-05 0.0000000000000000e+00  -2.4883287930840852e-04 -5.1429362351323006e-04 0.0000000000000000e+00  -2.6523137703060248e-02 -1.7617624220807143e-01 0.0000000000000000e+00  5.9404762508080042e-05 -6.8709714510151903e-04 0.0000000000000000e+00  8.5219706748761015e-06 -4.2965805590315192e-05 0.0000000000000000e+00  3.9648667557083733e-01 2.0620009259471024e+00 0.0000000000000000e+00  8.8877308679060504e-02 -1.3228449493950216e+00 0.0000000000000000e+00  -8.1037709291023899e-02 1.2565891085360064e+00 0.0000000000000000e+00  4.5732324837895709e-04 -8.3566049637832105e-04 0.0000000000000000e+00  -3.5083600372466300e-02 -1.4085846191919573e+00 0.0000000000000000e+00  -8.2383255878878708e-02 9.9195686740215838e-01 0.0000000000000000e+00  -2.7774237754246245e-03 -2.7192374558711725e-04 0.0000000000000000e+00  -7.9644510174698292e-04 -1.2733265133854272e+00 0.0000000000000000e+00  5.1257062075271788e-02 1.7330016740719494e+00 0.0000000000000000e+00  1.0601407085862875e-01 1.7458991803904100e+00 0.0000000000000000e+00  -2.6939392848194404e-01 2.7423575568106080e+00 0.0000000000000000e+00  2.5633896403258866e-03 1.1082410184583378e+00 0.0000000000000000e+00  3.5656294396002702e-01 2.8950572212769918e+00 0.0000000000000000e+00  6.8485753901543378e-02 -1.0755882392510299e+00 0.0000000000000000e+00  1.1714547375183301e-01 1.3834056989419996e+00 0.0000000000000000e+00  -3.9152658421379488e-01 1.2057334121765291e+00 0.0000000000000000e+00  1.3833250490632693e-02 1.6915022998919393e+00 0.0000000000000000e+00  1.0000787439369573e-02 -1.4435919666654271e+00 0.0000000000000000e+00  1.1062106925838078e-02 1.7583252421138902e+00 0.0000000000000000e+00  8.9468850187923543e-01 2.7516699409528806e+00 0.0000000000000000e+00  -9.3411311807513442e-02 2.7375518591873715e-01 0.0000000000000000e+00  -1.0455986921320747e-01 1.8490762139664854e+00 0.0000000000000000e+00  -9.6617247329831096e-02 -1.4125000631824928e-02 0.0000000000000000e+00  6.6603906676064736e-02 3.9611655734467810e-01 0.0000000000000000e+00  7.5531307439327349e-06 1.3859365065478155e-05 0.0000000000000000e+00  -7.2145857736053942e-01 2.5486012562616365e+00 0.0000000000000000e+00  -4.4852773258638221e-02 1.6982364909825813e+00 0.0000000000000000e+00  5.6513192501617005e-03 3.1226754155002012e-01 0.0000000000000000e+00  -8.7312651922641562e-03 -1.1065985985177074e+00 0.0000000000000000e+00  -6.8010670672371118e-03 7.0888526198294100e-01 0.0000000000000000e+00  -6.0697998615168065e-02 1.3895838826903155e+00 0.0000000000000000e+00  7.6469358144442105e-03 -1.4754456135022549e+00 0.0000000000000000e+00  -1.9150125547214908e-01 1.8258963646489643e+00 0.0000000000000000e+00  6.2243295346213146e-02 -1.6389499975767343e+00 0.0000000000000000e+00  -1.1188057552328733e-02 5.7322991771910283e-04 0.0000000000000000e+00  -4.1484274803199751e-02 1.5537939988566698e+00 0.0000000000000000e+00  5.3517905160867942e-02 -1.4736582001989726e+00 0.0000000000000000e+00  1.1825338979151644e-01 1.3876651551909433e-01 0.0000000000000000e+00  1.4985941329941022e-01 -1.7772101514502732e+00 0.0000000000000000e+00  4.3930829657229539e-02 -4.8093118698341797e-01 0.0000000000000000e+00  -2.7393170617207762e-02 1.6446600903000346e+00 0.0000000000000000e+00  7.1978453997227881e-02 -1.4375573742185948e+00 0.0000000000000000e+00  6.3607295234290073e-01 -1.2403828658526996e+00 0.0000000000000000e+00  2.8103337073534673e-01 -1.3815071097258675e+00 0.0000000000000000e+00  1.8531393975176635e-01 1.5296460838562640e+00 0.0000000000000000e+00  5.1006376591530178e-02 -6.0607225029825773e-01 0.0000000000000000e+00  8.0913268201252269e-04 4.0400156824910133e-05 0.0000000000000000e+00  2.7112869913589557e-03 -9.8334903302747432e-04 0.0000000000000000e+00  -1.7298981282132672e-01 -1.2737829038203048e+00 0.0000000000000000e+00  -9.1117809998133084e-02 -1.7637455489187468e+00 0.0000000000000000e+00  2.6855985760546698e-04 -5.3702031558016869e-04 0.0000000000000000e+00  -9.5212324779774260e-02 -1.4281891104305229e+00 0.0000000000000000e+00  -2.5022933015550707e-02 8.0662718005196721e-01 0.0000000000000000e+00  -3.9846678792804131e-02 -2.4372770288110929e-02 0.0000000000000000e+00  -5.4954197793464685e-04 -3.0516766700729641e-04 0.0000000000000000e+00  -9.1124819335462477e-04 7.3240692063959365e-04 0.0000000000000000e+00  2.5957534318309133e-02 1.7980535938990079e+00 0.0000000000000000e+00  1.5939757284973348e-03 1.7333212786531571e+00 0.0000000000000000e+00  7.0195168510020972e-02 -9.8751152168834344e-01 0.0000000000000000e+00  2.7012351840410873e-02 8.3411984480039636e-01 0.0000000000000000e+00  6.1278459648814922e-03 -1.1012022240152992e+00 0.0000000000000000e+00  1.0318268532564833e-02 -1.3658361261819922e+00 0.0000000000000000e+00  1.3484860535943595e-03 2.5610108052170032e-05 0.0000000000000000e+00  5.3976574339235794e-01 -9.7781183020811999e-02 0.0000000000000000e+00  4.8056675095987551e-02 -7.1832110100194979e-01 0.0000000000000000e+00  -4.1724790365689496e-04 -9.0999542771138153e-04 0.0000000000000000e+00  6.5964254818359324e-04 -6.8646053885055625e-04 0.0000000000000000e+00  5.3104292530357748e-04 -4.8632356948501951e-04 0.0000000000000000e+00  -8.2114128357389945e-04 -1.0314252503152068e-03 0.0000000000000000e+00  -1.7026336201253591e-03 -6.4736884546557347e-04 0.0000000000000000e+00  3.5256690496972343e-07 -3.1336062825996283e-05 0.0000000000000000e+00  4.2523402092932097e-05 -2.5711003001418890e-04 0.0000000000000000e+00  2.6219334114387227e-05 -1.0079297168493451e-03 0.0000000000000000e+00  1.7763142558373440e-01 -3.2450608246644419e-01 0.0000000000000000e+00  -4.4393952701342131e-02 -8.2555690412641658e-01 0.0000000000000000e+00  -1.9519664257516481e-01 1.8056811831489258e-01 0.0000000000000000e+00  7.2371356148654392e-02 -7.0203527576425906e-01 0.0000000000000000e+00  6.5988078589305818e-02 -1.6694082066687918e-01 0.0000000000000000e+00  2.0092214906029119e-03 2.3777692779049377e-04 0.0000000000000000e+00  -1.4173716885986449e+00 -6.9739004893022094e-01 0.0000000000000000e+00  -2.8488344207974564e-01 -4.0919522307968792e-01 0.0000000000000000e+00  4.0068598120621156e-02 -1.4221505586060006e+00 0.0000000000000000e+00  -1.4446756559084614e-01 -1.6418910671014060e+00 0.0000000000000000e+00  -8.0761396073403724e-01 -4.6458740973961815e-01 0.0000000000000000e+00  -7.5196860423855733e-02 2.8798398264450820e-01 0.0000000000000000e+00  -2.9129867120801295e-01 -8.8121021895259544e-01 0.0000000000000000e+00  4.2851199262669637e-01 -3.8671381727909288e-01 0.0000000000000000e+00  -8.5854599249999719e-02 -1.0437705464827991e+00 0.0000000000000000e+00  1.0265239818087547e-01 1.3990469041858042e+00 0.0000000000000000e+00  -6.4877271588689195e-02 -1.6194257186952221e+00 0.0000000000000000e+00  2.6530256459798840e-02 1.8985575709126290e+00 0.0000000000000000e+00  -7.1733874080059923e-01 -1.2906639456529565e+00 0.0000000000000000e+00  -4.8129962705676710e-02 -1.7338473479995977e+00 0.0000000000000000e+00  -1.3425954630214241e-02 1.5358796434978454e+00 0.0000000000000000e+00  3.0812095152607275e-02 -9.0450006515477055e-01 0.0000000000000000e+00  4.6779066800510763e-02 -1.3132897163585504e+00 0.0000000000000000e+00  1.1439775105331286e-01 -8.1276640551809942e-01 0.0000000000000000e+00  1.3882438327370108e+00 1.3160261297286460e-01 0.0000000000000000e+00  6.7553413063481435e-02 1.5312784929028496e+00 0.0000000000000000e+00  1.3282721108476912e-02 -1.9214342207217079e+00 0.0000000000000000e+00  4.4524375517371179e-02 9.6926000732150996e-01 0.0000000000000000e+00  -2.4358544775485387e-02 3.1308656834396298e-01 0.0000000000000000e+00  -3.6647460330945670e-03 1.6753401169069035e+00 0.0000000000000000e+00  -8.9164646399755524e-03 4.5106815812984929e-01 0.0000000000000000e+00  -1.2376685382424309e-02 9.6794695879034343e-01 0.0000000000000000e+00  3.3488951050411148e-01 8.9625716400794708e-01 0.0000000000000000e+00  -2.7040567194809162e-01 -1.2412146567906483e-01 0.0000000000000000e+00  2.0107745888190767e-01 -3.8113576545785682e-01 0.0000000000000000e+00  -1.0115347899632539e-02 1.0192694307050232e+00 0.0000000000000000e+00  -4.9514707635017211e-02 2.8482898233923226e-01 0.0000000000000000e+00  2.5570860186367197e-02 -1.4129753592242560e+00 0.0000000000000000e+00  2.3772436400979841e-02 5.4995468255073443e-01 0.0000000000000000e+00  -1.7752839873586354e-01 3.1775916302081691e-01 0.0000000000000000e+00  -6.2273879766686246e-02 1.4635492078414478e+00 0.0000000000000000e+00  2.0505339698935709e-02 -1.4836996339819897e-01 0.0000000000000000e+00  -3.1720095921824988e-02 -3.3091234975488582e-01 0.0000000000000000e+00  3.2116551429430519e-02 1.1389933627812472e+00 0.0000000000000000e+00  -4.9330515965079347e-01 -1.6643095316165563e-01 0.0000000000000000e+00  8.7922932882035365e-01 -5.7514232174292812e-01 0.0000000000000000e+00  1.3200675129262955e-02 -1.6853444038606966e+00 0.0000000000000000e+00  2.3971975757065746e-02 -1.3552814768183556e+00 0.0000000000000000e+00  -1.9223069845700647e-02 -1.8861269064268558e+00 0.0000000000000000e+00  -4.0431472898086979e-01 -2.6831195288884019e-01 0.0000000000000000e+00  -7.3342463198997968e-02 1.0696351414736296e+00 0.0000000000000000e+00  8.7996799004670068e-01 1.5273224422246947e+00 0.0000000000000000e+00  2.5471818151516790e-01 5.0964403537340497e-01 0.0000000000000000e+00  -8.4853313483157972e-02 -5.1849156582060973e-01 0.0000000000000000e+00  5.3624985364842642e-02 -4.8932708909223177e-01 0.0000000000000000e+00  -7.6662227802811456e-02 -1.7152269816210559e+00 0.0000000000000000e+00  1.0349579822455580e-01 1.7169195948834819e+00 0.0000000000000000e+00  5.1619242538812594e-02 1.8435941941541736e+00 0.0000000000000000e+00  -6.4619895210268563e-02 1.5706895588939844e+00 0.0000000000000000e+00  8.9496516495189082e-02 -1.5675175915933144e+00 0.0000000000000000e+00  7.3161668395073740e-03 7.7272042290718168e-01 0.0000000000000000e+00  6.1712211816272199e-02 -1.6726279034059890e+00 0.0000000000000000e+00  -5.5580347043475038e-02 1.4493354904981495e+00 0.0000000000000000e+00  -6.2264123021993655e-02 1.7777399997042136e+00 0.0000000000000000e+00  4.3183341049338103e-01 1.9171465677239370e+00 0.0000000000000000e+00  4.2888088592251065e-02 -6.4542488798039876e-01 0.0000000000000000e+00  -1.4577568362008864e-01 1.7205349309233178e+00 0.0000000000000000e+00  -1.1169330106394086e+00 1.7092280097355494e+00 0.0000000000000000e+00  -1.9798031804091450e-02 -1.4971739288180768e+00 0.0000000000000000e+00  3.7767598861935280e-02 -3.7839590378421872e-01 0.0000000000000000e+00  -1.2914584761283854e-01 2.3745556828612888e+00 0.0000000000000000e+00  4.7264278089407176e-02 -2.7508804505221518e-01 0.0000000000000000e+00  2.9040782510795994e-04 -4.7475310928844723e-04 0.0000000000000000e+00  -7.4489359064600483e-02 -6.5829921097829869e-01 0.0000000000000000e+00  5.7437191932571086e-01 -1.0430655036826093e+00 0.0000000000000000e+00  -2.0697121784304547e-02 -1.7464185501113088e+00 0.0000000000000000e+00  -4.3232073783197794e-02 -1.2109640905909520e+00 0.0000000000000000e+00  1.2326066770814670e-01 1.8620227340929247e+00 0.0000000000000000e+00  1.1217921533113922e-02 1.8919478093287842e-01 0.0000000000000000e+00  -2.1566941627484805e-04 -8.4124703280439369e-04 0.0000000000000000e+00  2.6971285464310119e-02 -1.3285558919747957e+00 0.0000000000000000e+00  1.4618713093078520e-01 -1.4475672696467421e+00 0.0000000000000000e+00  4.1462755948504869e-02 3.1634652334959962e-01 0.0000000000000000e+00  -3.8781274747505686e-04 -9.0063728297567157e-04 0.0000000000000000e+00  -1.2232783075192408e-01 1.9069639585632567e-01 0.0000000000000000e+00  -1.0118376347556926e-01 1.7502629040916571e+00 0.0000000000000000e+00  1.0577482571159932e-01 -9.1827964957708674e-01 0.0000000000000000e+00  6.4054356890416086e-03 8.2710855042083042e-01 0.0000000000000000e+00  -1.2999580635423142e-04 6.9881726916892675e-04 0.0000000000000000e+00  -9.0058633603735982e-01 1.9785650186521695e+00 0.0000000000000000e+00  1.3003525094369531e-01 1.1798382144398880e+00 0.0000000000000000e+00  7.8859420328001043e-02 8.7371284705962404e-01 0.0000000000000000e+00  -1.2090687071102602e-02 -3.6294929330408193e-03 0.0000000000000000e+00  -1.4168274490583287e-02 -1.4740969942027751e+00 0.0000000000000000e+00  1.4976839487399109e-02 2.5374913780341102e-01 0.0000000000000000e+00  -5.0854248468932595e-01 2.5924941084159117e+00 0.0000000000000000e+00  -1.5249414542049025e-01 1.2867716704577130e+00 0.0000000000000000e+00  -9.0833586456202542e-02 -1.2823474808502533e+00 0.0000000000000000e+00  2.6128930935751637e-01 -1.3861885367558774e-01 0.0000000000000000e+00  -1.2375922285249721e-01 -7.0152222217594817e-01 0.0000000000000000e+00  -2.5007200164395182e-02 9.7997707384304023e-01 0.0000000000000000e+00  8.2650006764901675e-03 -1.3209392010845962e+00 0.0000000000000000e+00  7.1113062191262158e-04 -6.2383083150885095e-04 0.0000000000000000e+00  -4.5062183684397317e-01 1.8159489135091418e+00 0.0000000000000000e+00  4.1670283126110541e-01 2.1523506625386619e+00 0.0000000000000000e+00  6.9845136029915789e-03 -1.2359513640353681e+00 0.0000000000000000e+00  -2.4618472368662223e-01 -6.3417039144590426e-01 0.0000000000000000e+00  2.9335478168202138e-02 3.6305900413674785e-01 0.0000000000000000e+00  -1.9940727023341615e-02 -1.7695141296036230e+00 0.0000000000000000e+00  -1.6833616959049817e-05 -4.2907471170451980e-05 0.0000000000000000e+00  1.1197467437785621e-02 1.6762895933792550e+00 0.0000000000000000e+00  3.2947671698365120e-02 1.1667026788407817e+00 0.0000000000000000e+00  7.1986867928638440e-02 1.7720093671030341e+00 0.0000000000000000e+00  4.0355313683175829e-04 7.4735967099025648e-04 0.0000000000000000e+00  -2.0060919031276464e-02 -1.1272274164728691e+00 0.0000000000000000e+00  -1.8620359741209534e-02 9.9369224564381675e-01 0.0000000000000000e+00  6.7962631871917378e-01 2.8805197794599748e+00 0.0000000000000000e+00  -4.1409662055608828e-03 -1.5420037233835311e+00 0.0000000000000000e+00  -1.2553637535027979e-03 9.4406606427879536e-01 0.0000000000000000e+00  2.0270412204804363e-02 1.7987381755223217e-01 0.0000000000000000e+00  -5.3531341152560280e-02 1.4813491222035227e+00 0.0000000000000000e+00  -2.1349870598059314e-02 -9.2078855793212266e-01 0.0000000000000000e+00  2.2518428978105634e-01 -4.2380844613708241e-01 0.0000000000000000e+00  7.9594980661502099e-02 1.8263494559827433e+00 0.0000000000000000e+00  5.1256971166875033e-02 1.5138321061183746e-01 0.0000000000000000e+00  -3.2278405221448869e-01 -1.1892286618653429e+00 0.0000000000000000e+00  1.2200247106043090e-01 2.4462588057568011e+00 0.0000000000000000e+00  9.2257061037025134e-02 -9.1647072600389345e-01 0.0000000000000000e+00  -3.3120936363304304e-01 -7.3842818212560757e-01 0.0000000000000000e+00  6.8176783570148156e-02 -1.8785058480080097e+00 0.0000000000000000e+00  3.9814853157444506e-02 -1.2343700459848905e+00 0.0000000000000000e+00  3.0731485408793113e-01 1.3753869995607388e+00 0.0000000000000000e+00  -2.4392274490001801e-04 4.6586881482608831e