<?xml version="1.0"?>
<VTKFile type="UnstructuredGrid"  version="0.1"  >
<UnstructuredGrid>
<Piece  NumberOfPoints="5089" NumberOfCells="9865">
<Points>
<DataArray  type="Float64"  NumberOfComponents="3"  format="ascii">0 1.5 0  0 0 0  0.1029058182573948 0 0  0.1029058182573948 0.02393156642875577 0  0.1251489251828899 0.06631226582407952 0  0.1645395112957465 0.09350162426854149 0  0.2120536680255323 0.0992708874098054 0  0.2568064746731156 0.08229838658936564 0  0.288545602565321 0.04647231720437685 0  0.3 0 0  0.51 0 0  0.5220577136594005 0.04499999999999999 0  0.555 0.07794228634059948 0  0.6 0.09 0  0.645 0.07794228634059946 0  0.6779422863405995 0.04499999999999999 0  0.6899999999999999 0 0  0.8924037639192813 0 0  0.8924037639192813 0.02287028598995353 0  0.9110081306187559 0.06465637775217206 0  0.9450000000000001 0.09526279441628825 0  0.9885018690405581 0.1093974084905101 0  1.033991869381244 0.1046162167924669 0  1.073604366699474 0.08174593080251337 0  1.100490000340686 0.04474103073833802 0  1.11 0 0  1.502905818257395 0 0  1.502905818257395 0.02393156642875577 0  1.52514892518289 0.06631226582407952 0  1.564539511295747 0.09350162426854149 0  1.612053668025532 0.0992708874098054 0  1.656806474673116 0.08229838658936564 0  1.688545602565321 0.04647231720437685 0  1.7 0 0  1.82324056211084 0 0  1.82324056211084 0.02253860454731437 0  1.847611141284377 0.06045996594834066 0  1.888614812938137 0.07918571535047463 0  1.933233201040151 0.07277055962836147 0  1.967300282626494 0.0432512653964478 0  1.98 0 0  2.202905818257395 0 0  2.202905818257395 0.02393156642875577 0  2.22514892518289 0.06631226582407952 0  2.264539511295746 0.09350162426854149 0  2.312053668025532 0.0992708874098054 0  2.356806474673115 0.08229838658936564 0  2.388545602565321 0.04647231720437685 0  2.4 0 0  2.51 0 0  2.522057713659401 0.04499999999999999 0  2.555 0.07794228634059948 0  2.6 0.09 0  2.645 0.07794228634059946 0  2.677942286340599 0.04499999999999999 0  2.69 0 0  3 0 0  3 1.5 0  0 0.75 0  1.5 1.5 0  0 0.375 0  0 0.1875 0  0.75 1.5 0  2.25 1.5 0  3 0.75 0  1.803364316093307 0.8194216192460635 0  0.7085714285714286 0.7914285714285714 0  2.396697907928333 0.698796196655595 0  1.26039230397729 0.6323879781298929 0  1.125 1.5 0  3 1.125 0  0.375 1.5 0  1.418284719659703 1.05567510076647 0  2.625 1.5 0  0 1.125 0  2.4375 1.120298797465005 0  0.4140309460188812 0.4815551607069073 0  0.9375 1.133540466589862 0  1.875 1.5 0  0.4143011358073044 1.085698864192695 0  2.042557228405723 0.4764057674039468 0  3 0.375 0  1.615235786026768 0.4839120951620492 0  0.9172436665953028 0.4786128535408891 0  2.136144598898015 0.9367443054342734 0  2.712089662802327 0.5625 0  1.752709466448716 1.168812671476193 0  2.696461986964791 0.9012929362807449 0  1.307422665144653 0.3094324321200764 0  2.0625 1.24476578117044 0  2.446405755792607 0.3860402512509704 0  0.3158723471199726 0.7836709721106835 0  1.018921994797561 0.831404696897531 0  1.521099871135537 0.7571953762650785 0  2.718190509848388 1.189592528269884 0  0.665307193508031 1.225469494285917 0  1.199897701782483 1.230481185797768 0  0.2233959957266646 1.276604004273335 0  0.6649397520368477 0.3607836886074089 0  0 0.5625 0  2.685543358160364 0.3192521589045413 0  1.775621962986754 0.2975552026784072 0  2.025654700292002 0.7195245521041802 0  0.1961827192748887 0.9897295638426992 0  1.25729921569077 0.8746334216075233 0  1.534142212444284 1.264044413891354 0  1.624439414641745 0.9597398592303362 0  2.117668421489377 0.2641528949307972 0  1.945094170902585 1.053880768096555 0  3 0.1875 0  0.6251639682912251 1.002291403912492 0  0.719601375969486 0.5727782913443102 0  0.2313942916225519 0.3335511938861402 0  0.4687668770508729 0.274248243200137 0  0.5143238740412669 0.6811446824633056 0  1.829350286632844 0.5059917594077202 0  1.082379929992235 0.3249418149194327 0  2.540679850598416 1.305492850437689 0  2.282283153018704 1.279796495628565 0  2.355666841619378 0.9154942188580675 0  0.2114722061938988 0.5448236655965607 0  3 1.3125 0  2.8125 1.5 0  2.263750685400308 0.5173381079832993 0  0.4343085727049624 1.296611441170993 0  1.6875 1.5 0  1.016037518489582 1.324553740130353 0  0.846292314151325 0.9469220663180872 0  1.122827752751251 1.035495517001457 0  1.3125 1.5 0  1.306452909128697 0 0  0.8906638629565067 0.6773217378320744 0  1.517175933126145 0.2981487507037606 0  0.7996957920902151 0.2224603600775558 0  1.446370464174038 0.5785990786868803 0  1.689965192988266 0.6625083927402473 0  0.4864273298880485 0.870473805626289 0  3 0.9375 0  2.831315819563651 1.036097903808422 0  1.106384347284952 0.5163011422226527 0  0.5625 1.5 0  0.9375 1.5 0  0.1875 1.5 0  2.0625 1.5 0  3 0.5625 0  0 0.9375 0  0 1.3125 0  2.4375 1.5 0  2.196044825237544 1.113880351688974 0  2.210431846521007 0.695834380790271 0  0.8262236946704767 1.326155809103077 0  2.523003751809735 0.8349453583788917 0  1.882533682486712 1.30904671408086 0  2.845 0 0  2.813607095438526 0.1837681344374856 0  2.298597604800397 0.280431891689246 0  1.972062138207083 0.8834951655964545 0  1.943392101370151 0.2475417334111557 0  2.828663592588797 0.4267055109367558 0  2.803791026183859 0.7364868569598708 0  2.523250359922468 0.5585816735541729 0  2.602935827188279 1.053310414780935 0  1.692458045540587 1.328962813001376 0  1.232271555781778 0.154950218767993 0  1.36985844680238 1.21899526865025 0  1.785321775315372 1.004919979330962 0  2.534633602602767 0.2439507161942105 0  0.7651985499724481 1.092302611968735 0  2.637828969450683 0.71279922663893 0  1.100469689258933 0.6843495375675052 0  1.315800235513153 0.4755545830105288 0  1.405546076805209 0.1782543944119986 0  2.826282129872177 1.326282129872177 0  0.575884497984488 0.4967904868667201 0  0.1516233666565383 0.826056857120972 0  0.3483704262380678 0.6272257636119053 0  1.568331672486121 1.108640197801574 0  1.475101554186818 0.9082985267599337 0  1.868470483419324 0.6670273102604994 0  0.3467545185571825 0.9433646607171683 0  2.15625 1.373787484318285 0  1.41742615593433 1.367603819494743 0  2.854904919456998 0.8828609574219635 0  0.9476741986655126 0.255395459587152 0  1.267450600339273 1.091056105706913 0  0.114311143675241 0.65625 0  0.65625 1.37859278398136 0  2.170651243108527 0.4023187025489676 0  1.21875 1.380886352874642 0  0.3798992233573569 0.1593768045411093 0  0.9831420651531181 0.9956358347774316 0  1.456186685150796 0.4319140716985383 0  2.586721317152155 0.4269308613840649 0  2.863979293145301 1.178604739864835 0  1.658646098314701 0.8045749301224775 0  1.383553643956373 0.7098158224076794 0  0.154006438477797 1.138458423126247 0  2.856044831401163 0.5977865618779903 0  0.553876003596687 1.130313370813194 0  2.680231675041409 1.360526450748891 0  2.486056782242186 0.9722817331473952 0  1.891212003911469 0.3789027676568836 0  0.8138227412155181 0.37102502168449 0  1.064674644221452 1.192903489156071 0  0.6045358160041144 0.2320910326486189 0  1.194008126159845 0.4081242368041457 0  2.138311355076408 0.5770795769918613 0  0.134142636330111 0.2313017261983794 0  0.8460209454012837 0.8084258449188535 0  0.1293517554287885 0.4305045409359897 0  0.3205820557512212 1.373790064297892 0  0.2928933613730453 1.155196229839076 0  2.404969940572298 1.358123451328196 0  0.9933877375830629 0.5899302104012978 0  2.090287791367255 0.1211621925433303 0  2.904889173308855 0.28125 0  0.1246766077328953 1.375323392267105 0  2.302041695038792 0.7931069109810627 0  2.389228836127323 0.5648368411465005 0  1.886839219693261 1.174850198523801 0  1.96875 1.5 0  2.005259577028834 1.368575570359887 0  2.58746882374347 1.183267841227943 0  1.646515580921743 0.3486369169127919 0  1.980147904783248 0.5942137934419368 0  2.07740167257538 1.055304717195479 0  1.57300338334685 0.6065157750282059 0  1.59375 1.5 0  1.679678032322464 0.2100937046526968 0  2.252673654577562 0.9960348417811178 0  2.17832845930892 0.8178435559778986 0  1.78125 1.5 0  2.021596890434516 0.349571947542988 0  1.79926971381977 0.1752587163176004 0  0.503878860142697 0.3943984894172995 0  1.146622573165596 0.8060813049917908 0  3 1.40625 0  2.649807995179342 0.2020005420916801 0  0.3438742656237004 0.2790576170649142 0  1.546875 1.386334759531577 0  3 0.09375 0  1.320989371181643 0.9800954309611291 0  1.270074893254929 0.7536540780084714 0  2.70770359261854 0.4387759707667409 0  0.5606072232931772 1.296106034499297 0  0.7858104720553775 1.211812834033452 0  2.317237622700128 1.09958886094401 0  2.518665098961854 0.68166123334458 0  1.747777558052355 0.4158756118164814 0  1.683029275145126 1.069756268641544 0  0.46875 1.5 0  2.407758410849746 0.2048845882413086 0  2.396684507181482 1.235853070423643 0  1.919569286509587 0.7755948020085885 0  2.290752654053557 0.4002939182457882 0  0.2367853577638227 0.6856443876677092 0  1.644821718344275 1.219632237269969 0  0 1.03125 0  0.5821665354391095 0.7878606619613046 0  0.6422016866915001 0.674771619551397 0  0.2917070890414653 0.4458139506278615 0  0.7912018819596407 0 0  0.1045102716700244 1.249819735557644 0  1.151091219660612 0.9224858968529193 0  2.719174284445647 1.071883664029489 0  0.7216906855953001 0.918545393630683 0  0.2528020696803429 0.8787006417214202 0  1.726437981314609 0.9055659975386789 0  1.466273966174817 1.158744006060248 0  0.500278661176367 0.9948136517426003 0  1.114706325735654 0.2023659607018325 0  1.193213601931895 0.2926984867334158 0  0.9725372994821596 0.3724679154862157 0  2.214714190066689 0.1991474088029779 0  2.411776451427861 0.8179674328277735 0  1.997105232295531 1.153439169094244 0  0.497834479014996 1.390464488336983 0  0.4532232073331143 0.5868543641678674 0  0.4094710929462204 0.7215160819073434 0  0.2730945637736263 0.1927345247561336 0  2.091452909128697 0 0  1.88727127931541 0.9574017932976476 0  0.7331675361580886 0.4562359341911597 0  0.808798696301996 0.1107204599928528 0  2.794056136375906 0.2935548935723623 0  2.172174128810919 1.263645408055929 0  2.266351953173893 1.389929090293708 0  0.9205129738298803 1.252177379624563 0  2.58760749
[...]
<PointData  Vectors="f_60"> 
<DataArray  type="Float64"  Name="f_60"  NumberOfComponents="3" format="ascii">-1.0932643162717186e-04 -6.3462905213753262e-04 0.0000000000000000e+00  4.1411885545516438e-04 -9.0760397822222706e-05 0.0000000000000000e+00  4.5972126645551229e-04 4.4632314258507449e-04 0.0000000000000000e+00  5.6129360663661554e-04 7.5231694250110434e-04 0.0000000000000000e+00  -1.5636569314254000e-04 4.5574167341303216e-04 0.0000000000000000e+00  -2.2769467238216936e-04 9.5469174630214077e-04 0.0000000000000000e+00  2.4730650696386789e-04 9.6853814978303853e-04 0.0000000000000000e+00  -2.3108182547916829e-05 4.0661303021595778e-04 0.0000000000000000e+00  7.4053394160366714e-04 1.2932982390424276e-03 0.0000000000000000e+00  7.2541769265094659e-04 4.0143717880124447e-04 0.0000000000000000e+00  1.3287033065178741e-04 3.2834032141529758e-04 0.0000000000000000e+00  5.2455797190928042e-04 8.5625110848768101e-04 0.0000000000000000e+00  1.4711252262653856e-04 9.0335488675040887e-04 0.0000000000000000e+00  9.0178311669382417e-05 3.3270043403301418e-04 0.0000000000000000e+00  8.1180322422466755e-05 6.9085070847363394e-04 0.0000000000000000e+00  -4.8696540207263458e-04 8.8768043492441502e-04 0.0000000000000000e+00  -2.5016891349230870e-04 5.4805742462011263e-04 0.0000000000000000e+00  -7.1861900782109825e-04 -9.3141167413880097e-06 0.0000000000000000e+00  -2.7002160935064081e-04 1.3648404969175396e-03 0.0000000000000000e+00  -3.5167892060316880e-04 1.5092257650832933e-03 0.0000000000000000e+00  -2.7748375084273805e-04 4.8190759003928225e-04 0.0000000000000000e+00  4.6667283694238718e-06 8.4522433331936419e-04 0.0000000000000000e+00  2.4616646160887306e-04 7.7205165867648689e-04 0.0000000000000000e+00  4.1206845276166564e-04 6.1541571765946074e-04 0.0000000000000000e+00  -4.9266348791987915e-04 9.0237809268974944e-04 0.0000000000000000e+00  -8.2992428506146912e-04 7.5448006863625420e-04 0.0000000000000000e+00  -6.6097055502519441e-04 7.3378989196306384e-05 0.0000000000000000e+00  -6.2667843409787774e-04 1.0792244228466578e-03 0.0000000000000000e+00  -5.5705290479248187e-04 9.6029957847073579e-04 0.0000000000000000e+00  1.0089510663549160e-04 8.6257389758597847e-04 0.0000000000000000e+00  -2.2706312170446766e-04 1.1573303182185778e-03 0.0000000000000000e+00  8.0068160418119696e-04 5.6857644681563516e-04 0.0000000000000000e+00  -8.9142803320043913e-04 1.1902107031553288e-03 0.0000000000000000e+00  -4.7734994659730901e-04 5.5281505367321877e-04 0.0000000000000000e+00  -4.4498518867920535e-04 1.0847452062260822e-04 0.0000000000000000e+00  -1.8302344019630078e-04 4.3567949857719940e-04 0.0000000000000000e+00  -1.0686032941053137e-04 7.9266418989514822e-04 0.0000000000000000e+00  -7.9641439972054115e-05 1.3028569831644316e-03 0.0000000000000000e+00  2.7776206620987740e-04 8.3103681188954469e-04 0.0000000000000000e+00  1.2020848972046303e-04 6.0938461456212713e-04 0.0000000000000000e+00  -5.4551021459901317e-04 7.2470110453227564e-04 0.0000000000000000e+00  5.3816729220618664e-04 3.6716849814385458e-04 0.0000000000000000e+00  7.5109116857989772e-04 7.2492708314350791e-04 0.0000000000000000e+00  1.8982188525439999e-04 8.4804302899196533e-04 0.0000000000000000e+00  2.1226206167103065e-04 8.5932718143846832e-04 0.0000000000000000e+00  -1.6638727590192367e-04 6.6120330743872201e-04 0.0000000000000000e+00  2.4995602378585053e-04 -1.5586787666175536e-04 0.0000000000000000e+00  -1.6226359820023238e-04 2.0543678309185706e-03 0.0000000000000000e+00  6.7610619234877937e-04 1.2751151674107949e-03 0.0000000000000000e+00  8.6030696864504961e-04 6.7551555891506637e-04 0.0000000000000000e+00  5.7085442079709094e-04 9.4886280754412800e-04 0.0000000000000000e+00  1.2345940762981612e-03 1.1767764265599562e-03 0.0000000000000000e+00  6.5461917168156746e-04 -3.2927577666565640e-04 0.0000000000000000e+00  1.7596709585161673e-04 -3.3988916213643737e-04 0.0000000000000000e+00  -3.5866629876246100e-04 1.7469418142620665e-03 0.0000000000000000e+00  7.3050416253345445e-04 -2.5548130850922181e-04 0.0000000000000000e+00  -6.1720179042077800e-03 1.8093190794963880e-03 0.0000000000000000e+00  -2.2690185791745931e-03 1.9391533641290619e-03 0.0000000000000000e+00  6.9978812074258260e-06 1.0034944805031351e-05 0.0000000000000000e+00  1.1976076854392150e-04 -7.8494923739892144e-04 0.0000000000000000e+00  6.7163358642408047e-06 6.8958499290418276e-06 0.0000000000000000e+00  1.3194706288613482e-04 5.5051799412472377e-04 0.0000000000000000e+00  7.6182982015400702e-05 -4.8127107110736058e-04 0.0000000000000000e+00  -6.0803320547121087e-05 -5.2537025874057426e-04 0.0000000000000000e+00  3.9445626912524320e-04 -2.3015679508877482e-04 0.0000000000000000e+00  2.6973020226072751e-02 2.2207564061484537e+00 0.0000000000000000e+00  2.3676354626518493e-02 -1.3111722304595623e+00 0.0000000000000000e+00  1.6288773194761522e-02 2.6943314747750318e+00 0.0000000000000000e+00  3.1671661862198761e-02 6.9632562896037475e-01 0.0000000000000000e+00  -5.9446937158066210e-04 -8.4622064925140314e-04 0.0000000000000000e+00  1.3955210567920314e-03 -2.5169568197776446e-05 0.0000000000000000e+00  -3.3026074788954806e-04 -5.2467520222042351e-04 0.0000000000000000e+00  -2.8677549116988336e-02 -1.8720121519339997e-01 0.0000000000000000e+00  3.9505527371679061e-04 -6.4682691971657881e-04 0.0000000000000000e+00  1.0519952176958186e-05 -5.4269962206890409e-05 0.0000000000000000e+00  4.4197270071298095e-01 2.3186179466129078e+00 0.0000000000000000e+00  9.9743819756689722e-02 -1.4417594040531547e+00 0.0000000000000000e+00  -9.1676649371953453e-02 1.3715406097799030e+00 0.0000000000000000e+00  4.3617730273541225e-04 -8.6874205907507929e-04 0.0000000000000000e+00  -3.6661347994435670e-02 -1.5575023716237513e+00 0.0000000000000000e+00  -8.8092377910690856e-02 1.1090057031795937e+00 0.0000000000000000e+00  -4.0254882274742493e-03 -8.2067888185761875e-04 0.0000000000000000e+00  -1.2498893416055653e-04 -1.4012596611245907e+00 0.0000000000000000e+00  5.7594243011810958e-02 1.9128999533898250e+00 0.0000000000000000e+00  1.1907783028976723e-01 1.9371451043052568e+00 0.0000000000000000e+00  -2.8513503993125888e-01 2.9600652603562665e+00 0.0000000000000000e+00  2.0511919181734938e-03 1.2215436430954052e+00 0.0000000000000000e+00  4.1017719634532773e-01 3.1727281355983039e+00 0.0000000000000000e+00  7.5468979769702640e-02 -1.1668753705880639e+00 0.0000000000000000e+00  1.2822971442459108e-01 1.5071692366987932e+00 0.0000000000000000e+00  -4.3431724733772764e-01 1.2325490759847952e+00 0.0000000000000000e+00  1.3645634029238270e-02 1.8655813487234589e+00 0.0000000000000000e+00  1.2751989444245476e-02 -1.5894186570364874e+00 0.0000000000000000e+00  1.1773805373833849e-02 1.9376544580253083e+00 0.0000000000000000e+00  1.0036767209470168e+00 3.0183645148724385e+00 0.0000000000000000e+00  -1.0392504484755394e-01 2.7938467499022668e-01 0.0000000000000000e+00  -1.1875076914074073e-01 2.0362243803435374e+00 0.0000000000000000e+00  -1.0766048544164973e-01 6.1918217899114497e-03 0.0000000000000000e+00  7.3284195162680449e-02 4.5223661612565247e-01 0.0000000000000000e+00  9.9603221748878467e-06 7.8672058607375577e-06 0.0000000000000000e+00  -7.8075250981605315e-01 2.7318140954547352e+00 0.0000000000000000e+00  -4.7908366851856413e-02 1.8730613400490144e+00 0.0000000000000000e+00  7.5490041550927900e-03 3.4269964183469681e-01 0.0000000000000000e+00  -9.0695236187292704e-03 -1.2154340033032613e+00 0.0000000000000000e+00  -8.2382006458197182e-03 7.7997933512439854e-01 0.0000000000000000e+00  -6.9060759744626166e-02 1.5219936071444709e+00 0.0000000000000000e+00  9.0424875232639115e-03 -1.6262105893565657e+00 0.0000000000000000e+00  -2.0870599227906458e-01 1.9867572776977673e+00 0.0000000000000000e+00  6.7580706079297267e-02 -1.8071970460716249e+00 0.0000000000000000e+00  -9.7837424308760447e-03 1.4082974018382586e-03 0.0000000000000000e+00  -4.8325823571509406e-02 1.7074155395017112e+00 0.0000000000000000e+00  6.0075451514662599e-02 -1.6154708629314312e+00 0.0000000000000000e+00  1.3033629366568944e-01 1.2585121358956752e-01 0.0000000000000000e+00  1.6919212854302418e-01 -1.9634862844716574e+00 0.0000000000000000e+00  4.9295239695279526e-02 -5.3822637853270083e-01 0.0000000000000000e+00  -2.8666479085968245e-02 1.8037561168251257e+00 0.0000000000000000e+00  7.9110474676798756e-02 -1.5953601381557037e+00 0.0000000000000000e+00  6.9446671583030961e-01 -1.3001735408499102e+00 0.0000000000000000e+00  3.0923610990732670e-01 -1.5632918905346844e+00 0.0000000000000000e+00  2.0901908368467062e-01 1.6553068094953631e+00 0.0000000000000000e+00  5.6490123572402288e-02 -6.7856554061958407e-01 0.0000000000000000e+00  3.5809533437594144e-04 -3.6402916922353584e-05 0.0000000000000000e+00  3.3333223688635813e-03 -9.5770422594256813e-04 0.0000000000000000e+00  -1.9478841928275456e-01 -1.3876280098471965e+00 0.0000000000000000e+00  -9.8817630552605146e-02 -1.9523201748158219e+00 0.0000000000000000e+00  2.6281687635968282e-04 -5.4807059620109783e-04 0.0000000000000000e+00  -1.0590271378908288e-01 -1.5945007383165510e+00 0.0000000000000000e+00  -2.8457546817906763e-02 8.9322295699935217e-01 0.0000000000000000e+00  -4.3684749335613428e-02 -1.6868386597416726e-02 0.0000000000000000e+00  -5.0413993477514468e-04 -2.8114406089591103e-04 0.0000000000000000e+00  -8.9410859277004671e-04 7.4549851212964537e-04 0.0000000000000000e+00  2.7381007296776203e-02 1.9794087997565568e+00 0.0000000000000000e+00  7.6704225028279387e-03 1.9075420978332494e+00 0.0000000000000000e+00  7.8129984854629728e-02 -1.0950550225387354e+00 0.0000000000000000e+00  3.1064666593471780e-02 9.1247997169391748e-01 0.0000000000000000e+00  7.4554160946588063e-03 -1.2140676798427716e+00 0.0000000000000000e+00  1.3065816586304988e-02 -1.5042532935923747e+00 0.0000000000000000e+00  1.3059508449058098e-03 -5.1686549742282518e-05 0.0000000000000000e+00  5.7691583613207575e-01 -2.8496118147707018e-02 0.0000000000000000e+00  5.3118102723331492e-02 -8.0062310770291079e-01 0.0000000000000000e+00  -3.6352711391172775e-04 -9.1446748938784283e-04 0.0000000000000000e+00  6.6800090515330591e-04 -6.9543825982596710e-04 0.0000000000000000e+00  5.3290468870564466e-04 -5.0974133414519651e-04 0.0000000000000000e+00  -8.5575290163996916e-04 -1.0658219522137725e-03 0.0000000000000000e+00  -2.0777467537740940e-03 -8.8257963772199856e-04 0.0000000000000000e+00  6.5165897675309656e-07 -3.3643256268484924e-05 0.0000000000000000e+00  5.1628470858421068e-05 -3.0483287698321315e-04 0.0000000000000000e+00  -1.7618135629669237e-04 -1.0207112794918807e-03 0.0000000000000000e+00  1.9250603096433344e-01 -3.2251229029902240e-01 0.0000000000000000e+00  -5.4447036176971816e-02 -9.1528725715029369e-01 0.0000000000000000e+00  -2.1792489014346100e-01 2.3274824316180473e-01 0.0000000000000000e+00  6.6102049362996101e-02 -7.6570314333177236e-01 0.0000000000000000e+00  7.2265389594192125e-02 -1.7669383593652416e-01 0.0000000000000000e+00  2.0426582257483741e-03 5.1561726471354059e-04 0.0000000000000000e+00  -1.5137301957064764e+00 -6.8126646995647122e-01 0.0000000000000000e+00  -3.1206574644810869e-01 -3.9109085184734022e-01 0.0000000000000000e+00  4.2599660027962602e-02 -1.5727431830360601e+00 0.0000000000000000e+00  -1.5933352508361245e-01 -1.8057830131961499e+00 0.0000000000000000e+00  -9.0516237585064740e-01 -4.9410489306857064e-01 0.0000000000000000e+00  -1.0208035368489864e-01 2.9514761590108030e-01 0.0000000000000000e+00  -3.3433510750063572e-01 -9.9122892862586265e-01 0.0000000000000000e+00  4.5808922130618157e-01 -5.0604915020056618e-01 0.0000000000000000e+00  -9.2389924068216514e-02 -1.1406541827530092e+00 0.0000000000000000e+00  1.2624755780984034e-01 1.5624558666383974e+00 0.0000000000000000e+00  -6.8734660151488727e-02 -1.7771401078096176e+00 0.0000000000000000e+00  2.9140318067571832e-02 2.0910052875323264e+00 0.0000000000000000e+00  -7.9095982098525652e-01 -1.3848962857710372e+00 0.0000000000000000e+00  -5.0379853792623497e-02 -1.9046147745005564e+00 0.0000000000000000e+00  -7.6370270194652630e-03 1.7044280935422749e+00 0.0000000000000000e+00  3.5060975373728057e-02 -1.0011620255209870e+00 0.0000000000000000e+00  5.2325900551399449e-02 -1.4372202411694610e+00 0.0000000000000000e+00  1.2530459551199197e-01 -9.0338996930111337e-01 0.0000000000000000e+00  1.5379555129961633e+00 3.9955614673488143e-01 0.0000000000000000e+00  7.3704352345896312e-02 1.6774478517708795e+00 0.0000000000000000e+00  1.5680142515610035e-02 -2.1160644873284387e+00 0.0000000000000000e+00  4.8087243422317308e-02 1.0781792612650249e+00 0.0000000000000000e+00  -2.7819626362136841e-02 3.3888517592921974e-01 0.0000000000000000e+00  -4.8750777443373750e-03 1.8461180456964548e+00 0.0000000000000000e+00  -1.0169638871869240e-02 4.9364506538254577e-01 0.0000000000000000e+00  -1.4766870146907295e-02 1.0647203130316405e+00 0.0000000000000000e+00  3.6961995567435102e-01 1.0187763472106339e+00 0.0000000000000000e+00  -3.0645714048778422e-01 -1.0272320867111905e-01 0.0000000000000000e+00  1.9436247746892121e-01 -4.1777780885160709e-01 0.0000000000000000e+00  -9.6295223853472521e-03 1.1244294894781648e+00 0.0000000000000000e+00  -5.5003510663778427e-02 3.0249018137034167e-01 0.0000000000000000e+00  2.9541099752106281e-02 -1.5530576491381523e+00 0.0000000000000000e+00  3.1664868067281339e-02 5.8528800771428635e-01 0.0000000000000000e+00  -1.9626458459869214e-01 3.0855305116159659e-01 0.0000000000000000e+00  -6.4608530915433629e-02 1.5946199708153781e+00 0.0000000000000000e+00  2.5256398060851500e-02 -1.4113345289945614e-01 0.0000000000000000e+00  -3.4631964560634408e-02 -3.7221301583445787e-01 0.0000000000000000e+00  3.7990879635384417e-02 1.2484309122793282e+00 0.0000000000000000e+00  -5.3924192366046964e-01 -8.0258854076263431e-02 0.0000000000000000e+00  9.3284053413775159e-01 -5.9547594751587463e-01 0.0000000000000000e+00  1.5058063730605711e-02 -1.8573176242357390e+00 0.0000000000000000e+00  2.8020787026484563e-02 -1.4956522814108513e+00 0.0000000000000000e+00  -1.9260625978191660e-02 -2.0744470475201409e+00 0.0000000000000000e+00  -4.6572389319404439e-01 -2.5953694718710157e-01 0.0000000000000000e+00  -8.3330041779202585e-02 1.1904164770723196e+00 0.0000000000000000e+00  9.5038745594825880e-01 1.5302605390213364e+00 0.0000000000000000e+00  2.7642697518286258e-01 6.1242570214959124e-01 0.0000000000000000e+00  -9.4448934348769623e-02 -5.8806172835982684e-01 0.0000000000000000e+00  6.0569575170146807e-02 -5.4823871287342840e-01 0.0000000000000000e+00  -8.1523323568663486e-02 -1.8826374837191668e+00 0.0000000000000000e+00  1.1613762851802317e-01 1.8987751250939333e+00 0.0000000000000000e+00  5.3335484388306736e-02 2.0288957806132455e+00 0.0000000000000000e+00  -6.8620864484188249e-02 1.7129590731319775e+00 0.0000000000000000e+00  9.9540184068851317e-02 -1.7176858773292405e+00 0.0000000000000000e+00  7.4910013576172437e-03 8.4942561407879968e-01 0.0000000000000000e+00  7.1147780255962176e-02 -1.8385236173786077e+00 0.0000000000000000e+00  -6.1550156098189951e-02 1.5795660049620126e+00 0.0000000000000000e+00  -7.1639399738789966e-02 1.9593402658911399e+00 0.0000000000000000e+00  4.6317209868436343e-01 2.1001368876679578e+00 0.0000000000000000e+00  4.8122311467589586e-02 -7.0191634352369181e-01 0.0000000000000000e+00  -1.6603281519545107e-01 1.9066975188025386e+00 0.0000000000000000e+00  -1.2418787214440916e+00 2.0852890368782777e+00 0.0000000000000000e+00  -2.8759536156966317e-02 -1.6619738298982212e+00 0.0000000000000000e+00  3.8993342369126466e-02 -4.2695436641388079e-01 0.0000000000000000e+00  -1.3250236221053699e-01 2.6100437739554141e+00 0.0000000000000000e+00  5.1034494181697053e-02 -2.9507922413307680e-01 0.0000000000000000e+00  2.9906476182507366e-04 -4.7439160698019978e-04 0.0000000000000000e+00  -8.7867576400916622e-02 -7.2930880929457509e-01 0.0000000000000000e+00  6.1694169624813178e-01 -1.2156376986079487e+00 0.0000000000000000e+00  -2.2341333518603072e-02 -1.9233829768031723e+00 0.0000000000000000e+00  -4.9111469653699613e-02 -1.3287751297866668e+00 0.0000000000000000e+00  1.3795070069059251e-01 2.0413242996538945e+00 0.0000000000000000e+00  1.2632874599005920e-02 2.1104755123997890e-01 0.0000000000000000e+00  -2.9241917368740390e-04 -8.5567156349617129e-04 0.0000000000000000e+00  2.9869274569394127e-02 -1.4566847471251165e+00 0.0000000000000000e+00  1.5461955358954477e-01 -1.5989877233641738e+00 0.0000000000000000e+00  4.3337956849247225e-02 3.5508157293197562e-01 0.0000000000000000e+00  -3.8167074789429106e-04 -9.1990331849263506e-04 0.0000000000000000e+00  -1.3348826903272412e-01 2.3687197745474534e-01 0.0000000000000000e+00  -1.1727482403701645e-01 1.9356713700475021e+00 0.0000000000000000e+00  1.1917049821989251e-01 -1.0299797708551857e+00 0.0000000000000000e+00  6.7248210944960635e-03 9.0973659955700203e-01 0.0000000000000000e+00  3.1053820390477432e-04 6.2929852055916384e-04 0.0000000000000000e+00  -9.8216119513241440e-01 2.2427477315853395e+00 0.0000000000000000e+00  1.4196464334480940e-01 1.3279451781249341e+00 0.0000000000000000e+00  9.1437062356973464e-02 9.4698601271372562e-01 0.0000000000000000e+00  -1.0025642901213442e-02 -3.1616745521300085e-03 0.0000000000000000e+00  -1.3743723277984281e-02 -1.6268489094571947e+00 0.0000000000000000e+00  1.6557953532130347e-02 2.8329961780965757e-01 0.0000000000000000e+00  -5.5048628353662699e-01 2.7551624226324889e+00 0.0000000000000000e+00  -1.7241253925250161e-01 1.4354937980913651e+00 0.0000000000000000e+00  -9.7902956348945150e-02 -1.3956484457604530e+00 0.0000000000000000e+00  2.8585737460313854e-01 -2.1124831684485459e-01 0.0000000000000000e+00  -1.4988369461128034e-01 -7.8778204176645705e-01 0.0000000000000000e+00  -2.6042734268119056e-02 1.0827437197314203e+00 0.0000000000000000e+00  1.0482987791263637e-02 -1.4571004777338330e+00 0.0000000000000000e+00  7.1872886946676147e-04 -6.3216101374080299e-04 0.0000000000000000e+00  -4.9274950567876796e-01 1.9418758127839604e+00 0.0000000000000000e+00  4.6188312567297823e-01 2.3523717689483647e+00 0.0000000000000000e+00  5.5470285302618378e-03 -1.3606011293402478e+00 0.0000000000000000e+00  -2.7130681263242584e-01 -6.5209803562694302e-01 0.0000000000000000e+00  3.1730922125325009e-02 3.9385729156449611e-01 0.0000000000000000e+00  -2.0015116550844873e-02 -1.9535310632570584e+00 0.0000000000000000e+00  -1.4574875301660850e-05 -4.6520178718422536e-05 0.0000000000000000e+00  1.0412782408016175e-02 1.8449214294893566e+00 0.0000000000000000e+00  3.5082173396468255e-02 1.2916579647510695e+00 0.0000000000000000e+00  7.5922227275406290e-02 1.9494437237719153e+00 0.0000000000000000e+00  3.3229686771378954e-04 7.3307446418412940e-04 0.0000000000000000e+00  -2.0104293345337858e-02 -1.2459575627547037e+00 0.0000000000000000e+00  -2.1508264684759193e-02 1.0976280719820433e+00 0.0000000000000000e+00  7.6704533752663662e-01 3.1792962557194007e+00 0.0000000000000000e+00  -2.5825929898019751e-03 -1.6996289933764055e+00 0.0000000000000000e+00  -2.9939782947406199e-03 1.0404540445980006e+00 0.0000000000000000e+00  2.3260384762096926e-02 1.9389811075227059e-01 0.0000000000000000e+00  -6.1017843994010078e-02 1.6395826609806217e+00 0.0000000000000000e+00  -2.2433682577618960e-02 -1.0080800454043040e+00 0.0000000000000000e+00  2.5384468948241523e-01 -4.9282484484613898e-01 0.0000000000000000e+00  8.1638526475313070e-02 2.0091985098310725e+00 0.0000000000000000e+00  5.8818186944632561e-02 1.7695621773804093e-01 0.0000000000000000e+00  -3.5150602378729612e-01 -1.3296430199314009e+00 0.0000000000000000e+00  1.4373461057142600e-01 2.6942285197800113e+00 0.0000000000000000e+00  1.0206437168660237e-01 -1.0289587401872864e+00 0.0000000000000000e+00  -3.7481248457322086e-01 -7.6890428473921801e-01 0.0000000000000000e+00  7.7657068216558850e-02 -2.0688332630964421e+00 0.0000000000000000e+00  4.5464633086659226e-02 -1.3529670499764510e+00 0.0000000000000000e+00  3.5376163112981185e-01 1.4893241605501171e+00 0.0000000000000000e+00  -2.2493412535847551e-04 4.396436154144068