<?xml version="1.0"?>
<VTKFile type="UnstructuredGrid"  version="0.1"  >
<UnstructuredGrid>
<Piece  NumberOfPoints="5089" NumberOfCells="9865">
<Points>
<DataArray  type="Float64"  NumberOfComponents="3"  format="ascii">0 1.5 0  0 0 0  0.1029058182573948 0 0  0.1029058182573948 0.02393156642875577 0  0.1251489251828899 0.06631226582407952 0  0.1645395112957465 0.09350162426854149 0  0.2120536680255323 0.0992708874098054 0  0.2568064746731156 0.08229838658936564 0  0.288545602565321 0.04647231720437685 0  0.3 0 0  0.51 0 0  0.5220577136594005 0.04499999999999999 0  0.555 0.07794228634059948 0  0.6 0.09 0  0.645 0.07794228634059946 0  0.6779422863405995 0.04499999999999999 0  0.6899999999999999 0 0  0.8924037639192813 0 0  0.8924037639192813 0.02287028598995353 0  0.9110081306187559 0.06465637775217206 0  0.9450000000000001 0.09526279441628825 0  0.9885018690405581 0.1093974084905101 0  1.033991869381244 0.1046162167924669 0  1.073604366699474 0.08174593080251337 0  1.100490000340686 0.04474103073833802 0  1.11 0 0  1.502905818257395 0 0  1.502905818257395 0.02393156642875577 0  1.52514892518289 0.06631226582407952 0  1.564539511295747 0.09350162426854149 0  1.612053668025532 0.0992708874098054 0  1.656806474673116 0.08229838658936564 0  1.688545602565321 0.04647231720437685 0  1.7 0 0  1.82324056211084 0 0  1.82324056211084 0.02253860454731437 0  1.847611141284377 0.06045996594834066 0  1.888614812938137 0.07918571535047463 0  1.933233201040151 0.07277055962836147 0  1.967300282626494 0.0432512653964478 0  1.98 0 0  2.202905818257395 0 0  2.202905818257395 0.02393156642875577 0  2.22514892518289 0.06631226582407952 0  2.264539511295746 0.09350162426854149 0  2.312053668025532 0.0992708874098054 0  2.356806474673115 0.08229838658936564 0  2.388545602565321 0.04647231720437685 0  2.4 0 0  2.51 0 0  2.522057713659401 0.04499999999999999 0  2.555 0.07794228634059948 0  2.6 0.09 0  2.645 0.07794228634059946 0  2.677942286340599 0.04499999999999999 0  2.69 0 0  3 0 0  3 1.5 0  0 0.75 0  1.5 1.5 0  0 0.375 0  0 0.1875 0  0.75 1.5 0  2.25 1.5 0  3 0.75 0  1.803364316093307 0.8194216192460635 0  0.7085714285714286 0.7914285714285714 0  2.396697907928333 0.698796196655595 0  1.26039230397729 0.6323879781298929 0  1.125 1.5 0  3 1.125 0  0.375 1.5 0  1.418284719659703 1.05567510076647 0  2.625 1.5 0  0 1.125 0  2.4375 1.120298797465005 0  0.4140309460188812 0.4815551607069073 0  0.9375 1.133540466589862 0  1.875 1.5 0  0.4143011358073044 1.085698864192695 0  2.042557228405723 0.4764057674039468 0  3 0.375 0  1.615235786026768 0.4839120951620492 0  0.9172436665953028 0.4786128535408891 0  2.136144598898015 0.9367443054342734 0  2.712089662802327 0.5625 0  1.752709466448716 1.168812671476193 0  2.696461986964791 0.9012929362807449 0  1.307422665144653 0.3094324321200764 0  2.0625 1.24476578117044 0  2.446405755792607 0.3860402512509704 0  0.3158723471199726 0.7836709721106835 0  1.018921994797561 0.831404696897531 0  1.521099871135537 0.7571953762650785 0  2.718190509848388 1.189592528269884 0  0.665307193508031 1.225469494285917 0  1.199897701782483 1.230481185797768 0  0.2233959957266646 1.276604004273335 0  0.6649397520368477 0.3607836886074089 0  0 0.5625 0  2.685543358160364 0.3192521589045413 0  1.775621962986754 0.2975552026784072 0  2.025654700292002 0.7195245521041802 0  0.1961827192748887 0.9897295638426992 0  1.25729921569077 0.8746334216075233 0  1.534142212444284 1.264044413891354 0  1.624439414641745 0.9597398592303362 0  2.117668421489377 0.2641528949307972 0  1.945094170902585 1.053880768096555 0  3 0.1875 0  0.6251639682912251 1.002291403912492 0  0.719601375969486 0.5727782913443102 0  0.2313942916225519 0.3335511938861402 0  0.4687668770508729 0.274248243200137 0  0.5143238740412669 0.6811446824633056 0  1.829350286632844 0.5059917594077202 0  1.082379929992235 0.3249418149194327 0  2.540679850598416 1.305492850437689 0  2.282283153018704 1.279796495628565 0  2.355666841619378 0.9154942188580675 0  0.2114722061938988 0.5448236655965607 0  3 1.3125 0  2.8125 1.5 0  2.263750685400308 0.5173381079832993 0  0.4343085727049624 1.296611441170993 0  1.6875 1.5 0  1.016037518489582 1.324553740130353 0  0.846292314151325 0.9469220663180872 0  1.122827752751251 1.035495517001457 0  1.3125 1.5 0  1.306452909128697 0 0  0.8906638629565067 0.6773217378320744 0  1.517175933126145 0.2981487507037606 0  0.7996957920902151 0.2224603600775558 0  1.446370464174038 0.5785990786868803 0  1.689965192988266 0.6625083927402473 0  0.4864273298880485 0.870473805626289 0  3 0.9375 0  2.831315819563651 1.036097903808422 0  1.106384347284952 0.5163011422226527 0  0.5625 1.5 0  0.9375 1.5 0  0.1875 1.5 0  2.0625 1.5 0  3 0.5625 0  0 0.9375 0  0 1.3125 0  2.4375 1.5 0  2.196044825237544 1.113880351688974 0  2.210431846521007 0.695834380790271 0  0.8262236946704767 1.326155809103077 0  2.523003751809735 0.8349453583788917 0  1.882533682486712 1.30904671408086 0  2.845 0 0  2.813607095438526 0.1837681344374856 0  2.298597604800397 0.280431891689246 0  1.972062138207083 0.8834951655964545 0  1.943392101370151 0.2475417334111557 0  2.828663592588797 0.4267055109367558 0  2.803791026183859 0.7364868569598708 0  2.523250359922468 0.5585816735541729 0  2.602935827188279 1.053310414780935 0  1.692458045540587 1.328962813001376 0  1.232271555781778 0.154950218767993 0  1.36985844680238 1.21899526865025 0  1.785321775315372 1.004919979330962 0  2.534633602602767 0.2439507161942105 0  0.7651985499724481 1.092302611968735 0  2.637828969450683 0.71279922663893 0  1.100469689258933 0.6843495375675052 0  1.315800235513153 0.4755545830105288 0  1.405546076805209 0.1782543944119986 0  2.826282129872177 1.326282129872177 0  0.575884497984488 0.4967904868667201 0  0.1516233666565383 0.826056857120972 0  0.3483704262380678 0.6272257636119053 0  1.568331672486121 1.108640197801574 0  1.475101554186818 0.9082985267599337 0  1.868470483419324 0.6670273102604994 0  0.3467545185571825 0.9433646607171683 0  2.15625 1.373787484318285 0  1.41742615593433 1.367603819494743 0  2.854904919456998 0.8828609574219635 0  0.9476741986655126 0.255395459587152 0  1.267450600339273 1.091056105706913 0  0.114311143675241 0.65625 0  0.65625 1.37859278398136 0  2.170651243108527 0.4023187025489676 0  1.21875 1.380886352874642 0  0.3798992233573569 0.1593768045411093 0  0.9831420651531181 0.9956358347774316 0  1.456186685150796 0.4319140716985383 0  2.586721317152155 0.4269308613840649 0  2.863979293145301 1.178604739864835 0  1.658646098314701 0.8045749301224775 0  1.383553643956373 0.7098158224076794 0  0.154006438477797 1.138458423126247 0  2.856044831401163 0.5977865618779903 0  0.553876003596687 1.130313370813194 0  2.680231675041409 1.360526450748891 0  2.486056782242186 0.9722817331473952 0  1.891212003911469 0.3789027676568836 0  0.8138227412155181 0.37102502168449 0  1.064674644221452 1.192903489156071 0  0.6045358160041144 0.2320910326486189 0  1.194008126159845 0.4081242368041457 0  2.138311355076408 0.5770795769918613 0  0.134142636330111 0.2313017261983794 0  0.8460209454012837 0.8084258449188535 0  0.1293517554287885 0.4305045409359897 0  0.3205820557512212 1.373790064297892 0  0.2928933613730453 1.155196229839076 0  2.404969940572298 1.358123451328196 0  0.9933877375830629 0.5899302104012978 0  2.090287791367255 0.1211621925433303 0  2.904889173308855 0.28125 0  0.1246766077328953 1.375323392267105 0  2.302041695038792 0.7931069109810627 0  2.389228836127323 0.5648368411465005 0  1.886839219693261 1.174850198523801 0  1.96875 1.5 0  2.005259577028834 1.368575570359887 0  2.58746882374347 1.183267841227943 0  1.646515580921743 0.3486369169127919 0  1.980147904783248 0.5942137934419368 0  2.07740167257538 1.055304717195479 0  1.57300338334685 0.6065157750282059 0  1.59375 1.5 0  1.679678032322464 0.2100937046526968 0  2.252673654577562 0.9960348417811178 0  2.17832845930892 0.8178435559778986 0  1.78125 1.5 0  2.021596890434516 0.349571947542988 0  1.79926971381977 0.1752587163176004 0  0.503878860142697 0.3943984894172995 0  1.146622573165596 0.8060813049917908 0  3 1.40625 0  2.649807995179342 0.2020005420916801 0  0.3438742656237004 0.2790576170649142 0  1.546875 1.386334759531577 0  3 0.09375 0  1.320989371181643 0.9800954309611291 0  1.270074893254929 0.7536540780084714 0  2.70770359261854 0.4387759707667409 0  0.5606072232931772 1.296106034499297 0  0.7858104720553775 1.211812834033452 0  2.317237622700128 1.09958886094401 0  2.518665098961854 0.68166123334458 0  1.747777558052355 0.4158756118164814 0  1.683029275145126 1.069756268641544 0  0.46875 1.5 0  2.407758410849746 0.2048845882413086 0  2.396684507181482 1.235853070423643 0  1.919569286509587 0.7755948020085885 0  2.290752654053557 0.4002939182457882 0  0.2367853577638227 0.6856443876677092 0  1.644821718344275 1.219632237269969 0  0 1.03125 0  0.5821665354391095 0.7878606619613046 0  0.6422016866915001 0.674771619551397 0  0.2917070890414653 0.4458139506278615 0  0.7912018819596407 0 0  0.1045102716700244 1.249819735557644 0  1.151091219660612 0.9224858968529193 0  2.719174284445647 1.071883664029489 0  0.7216906855953001 0.918545393630683 0  0.2528020696803429 0.8787006417214202 0  1.726437981314609 0.9055659975386789 0  1.466273966174817 1.158744006060248 0  0.500278661176367 0.9948136517426003 0  1.114706325735654 0.2023659607018325 0  1.193213601931895 0.2926984867334158 0  0.9725372994821596 0.3724679154862157 0  2.214714190066689 0.1991474088029779 0  2.411776451427861 0.8179674328277735 0  1.997105232295531 1.153439169094244 0  0.497834479014996 1.390464488336983 0  0.4532232073331143 0.5868543641678674 0  0.4094710929462204 0.7215160819073434 0  0.2730945637736263 0.1927345247561336 0  2.091452909128697 0 0  1.88727127931541 0.9574017932976476 0  0.7331675361580886 0.4562359341911597 0  0.808798696301996 0.1107204599928528 0  2.794056136375906 0.2935548935723623 0  2.172174128810919 1.263645408055929 0  2.266351953173893 1.389929090293708 0  0.9205129738298803 1.252177379624563 0  2.58760749
[...]
<PointData  Vectors="f_60"> 
<DataArray  type="Float64"  Name="f_60"  NumberOfComponents="3" format="ascii">6.7512904455879956e-05 -3.6575897201712786e-04 0.0000000000000000e+00  4.7676973854767201e-04 9.2310332275427661e-05 0.0000000000000000e+00  3.5064968130985318e-04 4.2176770212886468e-04 0.0000000000000000e+00  1.8201613318876241e-04 3.3355863666674810e-04 0.0000000000000000e+00  -1.8269158317567739e-04 1.3581266560183232e-05 0.0000000000000000e+00  1.2890623951729264e-04 4.8871477431465917e-04 0.0000000000000000e+00  3.4325061329734278e-04 2.6238499507253967e-04 0.0000000000000000e+00  -6.1610478007527442e-05 7.6663663339043478e-05 0.0000000000000000e+00  1.0645654197923838e-04 2.7749306719397122e-04 0.0000000000000000e+00  4.0574873761374498e-04 1.5933078696220071e-04 0.0000000000000000e+00  7.8486093959313088e-05 2.6465587318057372e-04 0.0000000000000000e+00  2.3045597408969770e-04 4.4233509885807084e-04 0.0000000000000000e+00  1.7084279466461990e-04 2.7335576336652513e-04 0.0000000000000000e+00  2.4854160159630302e-05 6.8969664028467232e-05 0.0000000000000000e+00  -9.7978153014883861e-05 2.9102304788089864e-04 0.0000000000000000e+00  -1.6475736201794063e-04 4.1629663831490048e-04 0.0000000000000000e+00  -5.0652559477954974e-05 2.8520919592342611e-04 0.0000000000000000e+00  -5.8555299795214066e-04 3.6005151090827317e-04 0.0000000000000000e+00  -2.5054058057293917e-04 5.5444781414711237e-04 0.0000000000000000e+00  -1.0274005130523327e-05 3.8693729754456062e-04 0.0000000000000000e+00  -5.7948148770724372e-05 1.4047917204053204e-04 0.0000000000000000e+00  -1.7950445062452078e-04 2.7621946098525736e-04 0.0000000000000000e+00  1.4229752538712134e-04 3.1821479447019432e-04 0.0000000000000000e+00  3.2234571516780885e-04 1.1875884633252985e-04 0.0000000000000000e+00  -6.8924154906855117e-05 2.1711341095246946e-04 0.0000000000000000e+00  -1.2809397435501705e-04 3.8150860009533336e-04 0.0000000000000000e+00  -4.7977689659879224e-04 2.7798653891201243e-04 0.0000000000000000e+00  -2.7283243376624523e-04 4.0258251801878365e-04 0.0000000000000000e+00  5.9715704187046185e-05 1.8887258657101336e-04 0.0000000000000000e+00  -8.7427818330017032e-05 1.7052929463560977e-04 0.0000000000000000e+00  -1.6445829771157572e-04 4.9478860389234435e-04 0.0000000000000000e+00  4.0284618165794579e-04 1.9872142310852842e-04 0.0000000000000000e+00  -1.9673223541902412e-04 2.4026537443914449e-04 0.0000000000000000e+00  -2.7260925704523790e-04 5.1955947445064669e-04 0.0000000000000000e+00  -4.0439072406292271e-04 2.3367402953761599e-04 0.0000000000000000e+00  -1.4373231745006278e-04 2.3001816223365069e-04 0.0000000000000000e+00  8.6664853639736395e-05 1.7316413519849393e-04 0.0000000000000000e+00  -2.1932269891041607e-04 3.8764410954471870e-04 0.0000000000000000e+00  8.0088830709589465e-05 3.6692682217340960e-04 0.0000000000000000e+00  2.3378355096568342e-04 1.7202902842518083e-04 0.0000000000000000e+00  6.1406420143998288e-05 3.9768781375328072e-04 0.0000000000000000e+00  3.4593187151862225e-04 3.8151923120647419e-04 0.0000000000000000e+00  2.1918158134099836e-04 3.0702218122038392e-04 0.0000000000000000e+00  1.2691193340317873e-04 1.2763906014496670e-04 0.0000000000000000e+00  -1.8205501774148634e-04 2.6210674653110182e-04 0.0000000000000000e+00  2.8436803822132233e-04 2.8446507432791375e-04 0.0000000000000000e+00  -7.0454180029484010e-05 4.7222846610453715e-05 0.0000000000000000e+00  -1.1993951457929728e-05 4.9564080016433485e-04 0.0000000000000000e+00  2.4096447647106489e-04 4.9785134864899975e-04 0.0000000000000000e+00  3.1537121334135099e-04 8.1051236660292228e-04 0.0000000000000000e+00  4.4353043168800092e-04 6.5255801753772173e-04 0.0000000000000000e+00  1.4602660565520673e-04 -4.0671291337920914e-05 0.0000000000000000e+00  2.2595002852164367e-04 -4.8275901488891946e-05 0.0000000000000000e+00  6.2870444219746951e-05 -1.5078701846563621e-04 0.0000000000000000e+00  -1.2850141230547228e-04 9.7304502624563540e-04 0.0000000000000000e+00  7.9051421234151240e-04 4.7416773445325104e-04 0.0000000000000000e+00  -7.8544493338718237e-03 -1.4516876660012679e-03 0.0000000000000000e+00  1.1017052795260984e-03 5.3549112722434480e-04 0.0000000000000000e+00  -1.0812419980155864e-05 2.6949570613939439e-05 0.0000000000000000e+00  -3.3994156399515382e-05 -4.4356261266013984e-04 0.0000000000000000e+00  -1.6853410522685659e-05 4.7685316826737868e-05 0.0000000000000000e+00  2.9315580288154567e-05 1.5906990654144168e-04 0.0000000000000000e+00  -1.6142650325401981e-05 -1.2144846441526003e-04 0.0000000000000000e+00  -4.3782471260358965e-05 -6.3127263174349860e-05 0.0000000000000000e+00  2.9991492239410660e-04 -2.5765596380440540e-05 0.0000000000000000e+00  5.1745645267663974e-03 5.4379605221015681e-01 0.0000000000000000e+00  4.1790366747853861e-03 -3.2534006082525124e-01 0.0000000000000000e+00  -8.4464115494694986e-03 6.6563635502007434e-01 0.0000000000000000e+00  7.8613520147662892e-03 1.6177050381521527e-01 0.0000000000000000e+00  -3.4465275516735360e-04 -3.1670883137112333e-04 0.0000000000000000e+00  1.0717745543031248e-03 -3.4514472428358947e-05 0.0000000000000000e+00  1.0213676873723244e-04 -1.8405808924568131e-04 0.0000000000000000e+00  -7.1418626491937939e-03 -5.4273879327057246e-02 0.0000000000000000e+00  -5.0768095018489804e-04 -3.6287492707115585e-04 0.0000000000000000e+00  -1.0474232902218629e-05 3.2684829416524191e-05 0.0000000000000000e+00  1.0322463158314379e-01 4.9717786291587285e-01 0.0000000000000000e+00  2.0907111215383342e-02 -3.7270466918407474e-01 0.0000000000000000e+00  -1.8486826645648206e-02 3.5112343889376879e-01 0.0000000000000000e+00  3.5358506886655472e-04 -3.3063903720375530e-04 0.0000000000000000e+00  -1.0474800045299807e-02 -3.7454459264175405e-01 0.0000000000000000e+00  -2.5272780853713900e-02 2.5052322325176596e-01 0.0000000000000000e+00  -3.2530435469206061e-04 1.6605309795953852e-05 0.0000000000000000e+00  -1.5305856521388994e-03 -3.4318181088545591e-01 0.0000000000000000e+00  1.2162546495425412e-02 4.6351968820593575e-01 0.0000000000000000e+00  2.7254769805795210e-02 4.5621537723748784e-01 0.0000000000000000e+00  -8.8247717735939271e-02 7.8447622160885844e-01 0.0000000000000000e+00  2.3784848184038340e-03 2.9858514393425023e-01 0.0000000000000000e+00  7.5514353330233167e-02 7.9066186578075026e-01 0.0000000000000000e+00  1.6967803503435762e-02 -3.0746786042135682e-01 0.0000000000000000e+00  3.3675722138743140e-02 3.9055991370614485e-01 0.0000000000000000e+00  -1.0552153676014898e-01 4.1969474383168631e-01 0.0000000000000000e+00  5.3980642246715975e-03 4.5247938245374747e-01 0.0000000000000000e+00  9.3261521531697847e-04 -3.9005597568751743e-01 0.0000000000000000e+00  3.2365481080113604e-03 4.7348634514027527e-01 0.0000000000000000e+00  2.2382622761722776e-01 7.0548893914157218e-01 0.0000000000000000e+00  -2.3310939336425088e-02 9.5855761269380946e-02 0.0000000000000000e+00  -2.3833121642899031e-02 4.9887389295952272e-01 0.0000000000000000e+00  -2.2483707267095004e-02 -2.6167990245190557e-02 0.0000000000000000e+00  1.7305612746090344e-02 9.0723142044103616e-02 0.0000000000000000e+00  2.2627334096887304e-06 3.1439113725075318e-05 0.0000000000000000e+00  -2.1345221239279774e-01 7.0407287836025723e-01 0.0000000000000000e+00  -1.4584253424380708e-02 4.5570098831671990e-01 0.0000000000000000e+00  -6.9171839160106968e-05 8.6007043853808279e-02 0.0000000000000000e+00  -2.2858500221923117e-03 -3.0282192420316689e-01 0.0000000000000000e+00  -8.5985291036806070e-04 1.9216713012121947e-01 0.0000000000000000e+00  -1.3001315966223410e-02 3.8395135843344802e-01 0.0000000000000000e+00  1.9653841232238688e-03 -3.9620853338794504e-01 0.0000000000000000e+00  -5.4803590719153632e-02 5.1713721742353080e-01 0.0000000000000000e+00  1.8510693204465356e-02 -4.3863755213994271e-01 0.0000000000000000e+00  -2.6308346815257558e-03 6.6370181856731554e-05 0.0000000000000000e+00  -7.7840359926732734e-03 4.2229632711854037e-01 0.0000000000000000e+00  1.2898815885431042e-02 -4.0533717008459746e-01 0.0000000000000000e+00  2.9956313986009321e-02 6.1966097028156655e-02 0.0000000000000000e+00  3.5055976977384821e-02 -4.7267570125656705e-01 0.0000000000000000e+00  1.0697475884960502e-02 -1.2171470760954249e-01 0.0000000000000000e+00  -9.6485158921679713e-03 4.5166030094820603e-01 0.0000000000000000e+00  1.8624027902587492e-02 -3.7589154141317194e-01 0.0000000000000000e+00  1.7980705043775169e-01 -3.7158984760056130e-01 0.0000000000000000e+00  7.8619698034389118e-02 -3.2362989673343634e-01 0.0000000000000000e+00  4.3914780265973091e-02 4.4488944984838830e-01 0.0000000000000000e+00  1.3016095892858657e-02 -1.5345008907232463e-01 0.0000000000000000e+00  1.2693606888581933e-03 2.7727479378033617e-05 0.0000000000000000e+00  1.9542882307085801e-04 -1.3829917335373101e-04 0.0000000000000000e+00  -4.2633886864973318e-02 -3.5625467485669882e-01 0.0000000000000000e+00  -2.4147359255241557e-02 -4.6763861909103183e-01 0.0000000000000000e+00  -4.8461139868439817e-05 -1.3087770495502247e-04 0.0000000000000000e+00  -2.5143271312533303e-02 -3.6458347914776018e-01 0.0000000000000000e+00  -5.5658679412429104e-03 2.1239356127988243e-01 0.0000000000000000e+00  -1.0476886354967211e-02 -1.6740569516460257e-02 0.0000000000000000e+00  -1.4082403847132593e-04 -3.3736161049859196e-05 0.0000000000000000e+00  -4.8647101757248447e-04 4.1291609307045145e-04 0.0000000000000000e+00  7.7984661751658328e-03 4.8554360685053100e-01 0.0000000000000000e+00  -4.4524506248020896e-03 4.7005077849507804e-01 0.0000000000000000e+00  1.6751678247197390e-02 -2.5996738018449844e-01 0.0000000000000000e+00  5.4155647980545160e-03 2.3100912909746235e-01 0.0000000000000000e+00  6.6701311102275527e-04 -2.9581378322468144e-01 0.0000000000000000e+00  1.3604224019526008e-03 -3.6926329344509545e-01 0.0000000000000000e+00  6.4928919518343414e-04 6.8685931031686238e-06 0.0000000000000000e+00  1.6504498880927704e-01 -9.1132732177316322e-02 0.0000000000000000e+00  1.2453395842983586e-02 -1.8382269514684521e-01 0.0000000000000000e+00  -3.2377370249820123e-04 -4.4284912685927063e-04 0.0000000000000000e+00  3.3356576358205091e-04 -3.9068819491695750e-04 0.0000000000000000e+00  7.2012219069903983e-05 -5.6845589084931980e-05 0.0000000000000000e+00  -3.6247410685472651e-04 -4.6631340770765360e-04 0.0000000000000000e+00  -1.6907282375389109e-04 -1.2052915534057613e-04 0.0000000000000000e+00  5.3490691876614492e-06 6.2541317703190737e-06 0.0000000000000000e+00  1.1842437690006349e-05 1.0505026104857418e-05 0.0000000000000000e+00  2.6670700275479225e-04 -5.2642942461944499e-04 0.0000000000000000e+00  5.1938377853146853e-02 -1.2262766795152141e-01 0.0000000000000000e+00  -5.7643719400682679e-03 -2.1549333995549291e-01 0.0000000000000000e+00  -4.8326052392698153e-02 1.4534055832518350e-02 0.0000000000000000e+00  3.3528806771900073e-02 -1.9864462862453758e-01 0.0000000000000000e+00  1.8331359944067649e-02 -5.2225646501205411e-02 0.0000000000000000e+00  6.5964887458460925e-04 3.3658797141905783e-04 0.0000000000000000e+00  -3.8129923132061100e-01 -1.1317724519781644e-01 0.0000000000000000e+00  -7.9964989203355166e-02 -1.7162355750994623e-01 0.0000000000000000e+00  1.2723259430368289e-02 -3.7613655328427242e-01 0.0000000000000000e+00  -3.9609488688033011e-02 -4.4473295097906779e-01 0.0000000000000000e+00  -1.8944893943378402e-01 -9.1872464112312660e-02 0.0000000000000000e+00  -1.7354244354607546e-03 9.1170302933636427e-02 0.0000000000000000e+00  -6.3515513746671109e-02 -2.1113737259279225e-01 0.0000000000000000e+00  1.2389445094903505e-01 -6.5865545472917316e-03 0.0000000000000000e+00  -2.2250620411830221e-02 -2.8997063086686603e-01 0.0000000000000000e+00  2.0275040337265786e-02 3.5987423136377888e-01 0.0000000000000000e+00  -1.9199176261898678e-02 -4.4256073418063147e-01 0.0000000000000000e+00  7.7332389265487526e-03 5.1311968984821343e-01 0.0000000000000000e+00  -1.8966056329061765e-01 -3.4628104302559770e-01 0.0000000000000000e+00  -1.4982732678111864e-02 -4.7280879658046815e-01 0.0000000000000000e+00  -9.6562895963472183e-03 4.0537205992338438e-01 0.0000000000000000e+00  7.0323910499060106e-03 -2.3874787541239761e-01 0.0000000000000000e+00  1.1166568273309828e-02 -3.6339600273635098e-01 0.0000000000000000e+00  3.0086416415185259e-02 -2.1040960820872637e-01 0.0000000000000000e+00  3.8723530047046617e-01 -1.7238359412537532e-01 0.0000000000000000e+00  1.7921800365260743e-02 4.2134852156342267e-01 0.0000000000000000e+00  2.6517799582871922e-03 -5.1917156579844026e-01 0.0000000000000000e+00  1.2626075430115603e-02 2.4952558136181219e-01 0.0000000000000000e+00  -4.9308428716833093e-03 9.0558061206013785e-02 0.0000000000000000e+00  -4.1592610425449104e-05 4.5092194968278426e-01 0.0000000000000000e+00  -2.4120395170878044e-03 1.2566015128755831e-01 0.0000000000000000e+00  -1.6744359547019862e-03 2.6145341216888596e-01 0.0000000000000000e+00  9.0572259013496761e-02 2.0516969199920326e-01 0.0000000000000000e+00  -6.4306983579196023e-02 -6.7446709455320192e-02 0.0000000000000000e+00  7.8774359917549358e-02 -9.7735283404741538e-02 0.0000000000000000e+00  -3.8232222004667910e-03 2.7195811165547329e-01 0.0000000000000000e+00  -1.2231013648639120e-02 8.8211072775198116e-02 0.0000000000000000e+00  5.2331924206003577e-03 -3.8539364975063506e-01 0.0000000000000000e+00  -1.3329751026733359e-03 1.6998659368338576e-01 0.0000000000000000e+00  -4.8805028836957517e-02 1.2991008430492765e-01 0.0000000000000000e+00  -2.0549561919737357e-02 4.1412791450437547e-01 0.0000000000000000e+00  2.4548970985829675e-03 -6.4400786401624902e-02 0.0000000000000000e+00  -8.5112222198325867e-03 -8.1446632338300032e-02 0.0000000000000000e+00  5.4430264910298731e-03 3.1276848350849046e-01 0.0000000000000000e+00  -1.2989848459497513e-01 -1.4000007422204799e-01 0.0000000000000000e+00  2.7278670892209228e-01 -1.2114791268879582e-01 0.0000000000000000e+00  3.1117532457457906e-03 -4.5297570931429004e-01 0.0000000000000000e+00  4.7569627608142831e-03 -3.6218241835717935e-01 0.0000000000000000e+00  -6.1948733475795537e-03 -5.1345812066684038e-01 0.0000000000000000e+00  -8.2994587566540018e-02 -9.4147959206576023e-02 0.0000000000000000e+00  -1.6279421141904539e-02 2.7567723142592471e-01 0.0000000000000000e+00  2.6126262205213635e-01 5.3525394761654599e-01 0.0000000000000000e+00  7.5051214350153037e-02 8.1581914399261976e-02 0.0000000000000000e+00  -2.2672054026725962e-02 -1.2117463790338190e-01 0.0000000000000000e+00  1.2649502153638888e-02 -1.2335936989858148e-01 0.0000000000000000e+00  -2.2641076094004380e-02 -4.6834311656538202e-01 0.0000000000000000e+00  2.3157640330620653e-02 4.5572190735848767e-01 0.0000000000000000e+00  1.6334971780093119e-02 4.9866329158703843e-01 0.0000000000000000e+00  -2.1479725387394902e-02 4.4075226975455528e-01 0.0000000000000000e+00  2.1630514649516798e-02 -4.3662477058281596e-01 0.0000000000000000e+00  2.3965067381921199e-03 2.0947234126554717e-01 0.0000000000000000e+00  1.3133132147647610e-02 -4.5624731399465795e-01 0.0000000000000000e+00  -1.1244057933544747e-02 4.1051061613062101e-01 0.0000000000000000e+00  -1.2668718777014502e-02 4.7691529169452768e-01 0.0000000000000000e+00  1.2970555874809081e-01 5.1979387411779210e-01 0.0000000000000000e+00  1.0222139062879538e-02 -1.8290432812708760e-01 0.0000000000000000e+00  -3.6167276611223750e-02 4.5247850585597454e-01 0.0000000000000000e+00  -3.2221215621131871e-01 1.9917527637180815e-01 0.0000000000000000e+00  5.0669139864993711e-03 -3.9727531162618018e-01 0.0000000000000000e+00  1.2547325159715116e-02 -9.0058304496619793e-02 0.0000000000000000e+00  -4.4905364915689673e-02 6.4389776281236633e-01 0.0000000000000000e+00  1.4629925835475708e-02 -8.2451204701558908e-02 0.0000000000000000e+00  1.9517283130544285e-05 -1.1331974569907274e-04 0.0000000000000000e+00  -9.6268711401111956e-03 -1.7214166068401290e-01 0.0000000000000000e+00  1.6675878669085231e-01 -1.8278809521099029e-01 0.0000000000000000e+00  -7.2452898549054436e-03 -4.7098124918599077e-01 0.0000000000000000e+00  -1.0696832391754712e-02 -3.3003083125200083e-01 0.0000000000000000e+00  3.1238835807706845e-02 5.1216785001338128e-01 0.0000000000000000e+00  2.3774736410577960e-03 4.9309402764836578e-02 0.0000000000000000e+00  1.3969747275465594e-04 -2.8362630689421120e-04 0.0000000000000000e+00  3.0021461030370392e-03 -3.6680892477798216e-01 0.0000000000000000e+00  4.5916836560009382e-02 -3.8258552529242246e-01 0.0000000000000000e+00  1.3655704619230430e-02 7.7651353338282436e-02 0.0000000000000000e+00  -2.1329061624731716e-04 -4.5280456259740232e-04 0.0000000000000000e+00  -3.5614145756154791e-02 2.3897794981193786e-02 0.0000000000000000e+00  -2.2860756348110883e-02 4.7033416024425362e-01 0.0000000000000000e+00  2.4816172409799948e-02 -2.2895248717937783e-01 0.0000000000000000e+00  1.9410405280785071e-03 2.2404470604540469e-01 0.0000000000000000e+00  1.6647473742230417e-03 -3.3288641891769057e-05 0.0000000000000000e+00  -2.4724040407012243e-01 4.1106998307104198e-01 0.0000000000000000e+00  3.4106704914533527e-02 2.8948775788951997e-01 0.0000000000000000e+00  1.8363429557368933e-02 2.5370930747329135e-01 0.0000000000000000e+00  -4.3950649588328670e-03 -2.0784640331939943e-03 0.0000000000000000e+00  -5.1631339159521937e-03 -3.9375149334291482e-01 0.0000000000000000e+00  4.0754824933724532e-03 6.4792294044126147e-02 0.0000000000000000e+00  -1.5374304003313724e-01 7.6727476587894428e-01 0.0000000000000000e+00  -3.5352585095590916e-02 3.2799221676346535e-01 0.0000000000000000e+00  -2.5516013249699140e-02 -3.6260217981290754e-01 0.0000000000000000e+00  7.2341404398945680e-02 2.6334664693297909e-02 0.0000000000000000e+00  -1.9157751533391474e-02 -1.7478234067709922e-01 0.0000000000000000e+00  -9.1453429060450696e-03 2.6037477129276543e-01 0.0000000000000000e+00  1.8529093446437975e-03 -3.5333384349782015e-01 0.0000000000000000e+00  9.6493208013718649e-05 -1.5362772153886255e-04 0.0000000000000000e+00  -1.2338027277524741e-01 5.3495448101740517e-01 0.0000000000000000e+00  1.0980081947947722e-01 5.8835823925068298e-01 0.0000000000000000e+00  3.8698677212505466e-03 -3.3322593691656011e-01 0.0000000000000000e+00  -6.7134060236304693e-02 -2.1658897941694727e-01 0.0000000000000000e+00  8.3218435202828001e-03 1.0304070968251340e-01 0.0000000000000000e+00  -6.2764259085633118e-03 -4.7260808148374750e-01 0.0000000000000000e+00  -1.4055057824509946e-05 2.7594220324504772e-05 0.0000000000000000e+00  4.8832413109248900e-03 4.5265567169281640e-01 0.0000000000000000e+00  9.8616097127925666e-03 3.0736944724067655e-01 0.0000000000000000e+00  2.1289759774214947e-02 4.7829554556948484e-01 0.0000000000000000e+00  3.7616537063608419e-04 4.1053595939153986e-04 0.0000000000000000e+00  -6.3896369162287974e-03 -3.0226737208381588e-01 0.0000000000000000e+00  -3.9345883742901077e-03 2.6473442639353406e-01 0.0000000000000000e+00  1.6529739704799221e-01 7.4511034692506561e-01 0.0000000000000000e+00  -2.9811471628919516e-03 -4.1505319117786077e-01 0.0000000000000000e+00  1.3388079469617386e-03 2.5334825547600304e-01 0.0000000000000000e+00  4.8421306160588810e-03 5.2842337148153291e-02 0.0000000000000000e+00  -1.2076241246019923e-02 3.9166478161401946e-01 0.0000000000000000e+00  -6.1317904435348684e-03 -2.5486644744468762e-01 0.0000000000000000e+00  5.1569784220528186e-02 -8.7390831182997855e-02 0.0000000000000000e+00  2.5003993880078852e-02 4.9517145994605610e-01 0.0000000000000000e+00  1.1401645468766489e-02 3.0619655541077453e-02 0.0000000000000000e+00  -9.0409494064170565e-02 -2.9283859739890788e-01 0.0000000000000000e+00  2.2644393343855859e-02 6.5793716853961681e-01 0.0000000000000000e+00  2.5573993724927826e-02 -2.2575768476397018e-01 0.0000000000000000e+00  -7.9687903073170530e-02 -2.3918122891331012e-01 0.0000000000000000e+00  1.5294237222664911e-02 -5.0698673992005827e-01 0.0000000000000000e+00  8.8505142860887207e-03 -3.4027353081296879e-01 0.0000000000000000e+00  6.6342637119508732e-02 3.8888006127635577e-01 0.0000000000000000e+00  -8.3174562007072282e-05 8.7744157395274594e-