<?xml version="1.0"?>
<VTKFile type="UnstructuredGrid"  version="0.1"  >
<UnstructuredGrid>
<Piece  NumberOfPoints="5089" NumberOfCells="9865">
<Points>
<DataArray  type="Float64"  NumberOfComponents="3"  format="ascii">0 1.5 0  0 0 0  0.1029058182573948 0 0  0.1029058182573948 0.02393156642875577 0  0.1251489251828899 0.06631226582407952 0  0.1645395112957465 0.09350162426854149 0  0.2120536680255323 0.0992708874098054 0  0.2568064746731156 0.08229838658936564 0  0.288545602565321 0.04647231720437685 0  0.3 0 0  0.51 0 0  0.5220577136594005 0.04499999999999999 0  0.555 0.07794228634059948 0  0.6 0.09 0  0.645 0.07794228634059946 0  0.6779422863405995 0.04499999999999999 0  0.6899999999999999 0 0  0.8924037639192813 0 0  0.8924037639192813 0.02287028598995353 0  0.9110081306187559 0.06465637775217206 0  0.9450000000000001 0.09526279441628825 0  0.9885018690405581 0.1093974084905101 0  1.033991869381244 0.1046162167924669 0  1.073604366699474 0.08174593080251337 0  1.100490000340686 0.04474103073833802 0  1.11 0 0  1.502905818257395 0 0  1.502905818257395 0.02393156642875577 0  1.52514892518289 0.06631226582407952 0  1.564539511295747 0.09350162426854149 0  1.612053668025532 0.0992708874098054 0  1.656806474673116 0.08229838658936564 0  1.688545602565321 0.04647231720437685 0  1.7 0 0  1.82324056211084 0 0  1.82324056211084 0.02253860454731437 0  1.847611141284377 0.06045996594834066 0  1.888614812938137 0.07918571535047463 0  1.933233201040151 0.07277055962836147 0  1.967300282626494 0.0432512653964478 0  1.98 0 0  2.202905818257395 0 0  2.202905818257395 0.02393156642875577 0  2.22514892518289 0.06631226582407952 0  2.264539511295746 0.09350162426854149 0  2.312053668025532 0.0992708874098054 0  2.356806474673115 0.08229838658936564 0  2.388545602565321 0.04647231720437685 0  2.4 0 0  2.51 0 0  2.522057713659401 0.04499999999999999 0  2.555 0.07794228634059948 0  2.6 0.09 0  2.645 0.07794228634059946 0  2.677942286340599 0.04499999999999999 0  2.69 0 0  3 0 0  3 1.5 0  0 0.75 0  1.5 1.5 0  0 0.375 0  0 0.1875 0  0.75 1.5 0  2.25 1.5 0  3 0.75 0  1.803364316093307 0.8194216192460635 0  0.7085714285714286 0.7914285714285714 0  2.396697907928333 0.698796196655595 0  1.26039230397729 0.6323879781298929 0  1.125 1.5 0  3 1.125 0  0.375 1.5 0  1.418284719659703 1.05567510076647 0  2.625 1.5 0  0 1.125 0  2.4375 1.120298797465005 0  0.4140309460188812 0.4815551607069073 0  0.9375 1.133540466589862 0  1.875 1.5 0  0.4143011358073044 1.085698864192695 0  2.042557228405723 0.4764057674039468 0  3 0.375 0  1.615235786026768 0.4839120951620492 0  0.9172436665953028 0.4786128535408891 0  2.136144598898015 0.9367443054342734 0  2.712089662802327 0.5625 0  1.752709466448716 1.168812671476193 0  2.696461986964791 0.9012929362807449 0  1.307422665144653 0.3094324321200764 0  2.0625 1.24476578117044 0  2.446405755792607 0.3860402512509704 0  0.3158723471199726 0.7836709721106835 0  1.018921994797561 0.831404696897531 0  1.521099871135537 0.7571953762650785 0  2.718190509848388 1.189592528269884 0  0.665307193508031 1.225469494285917 0  1.199897701782483 1.230481185797768 0  0.2233959957266646 1.276604004273335 0  0.6649397520368477 0.3607836886074089 0  0 0.5625 0  2.685543358160364 0.3192521589045413 0  1.775621962986754 0.2975552026784072 0  2.025654700292002 0.7195245521041802 0  0.1961827192748887 0.9897295638426992 0  1.25729921569077 0.8746334216075233 0  1.534142212444284 1.264044413891354 0  1.624439414641745 0.9597398592303362 0  2.117668421489377 0.2641528949307972 0  1.945094170902585 1.053880768096555 0  3 0.1875 0  0.6251639682912251 1.002291403912492 0  0.719601375969486 0.5727782913443102 0  0.2313942916225519 0.3335511938861402 0  0.4687668770508729 0.274248243200137 0  0.5143238740412669 0.6811446824633056 0  1.829350286632844 0.5059917594077202 0  1.082379929992235 0.3249418149194327 0  2.540679850598416 1.305492850437689 0  2.282283153018704 1.279796495628565 0  2.355666841619378 0.9154942188580675 0  0.2114722061938988 0.5448236655965607 0  3 1.3125 0  2.8125 1.5 0  2.263750685400308 0.5173381079832993 0  0.4343085727049624 1.296611441170993 0  1.6875 1.5 0  1.016037518489582 1.324553740130353 0  0.846292314151325 0.9469220663180872 0  1.122827752751251 1.035495517001457 0  1.3125 1.5 0  1.306452909128697 0 0  0.8906638629565067 0.6773217378320744 0  1.517175933126145 0.2981487507037606 0  0.7996957920902151 0.2224603600775558 0  1.446370464174038 0.5785990786868803 0  1.689965192988266 0.6625083927402473 0  0.4864273298880485 0.870473805626289 0  3 0.9375 0  2.831315819563651 1.036097903808422 0  1.106384347284952 0.5163011422226527 0  0.5625 1.5 0  0.9375 1.5 0  0.1875 1.5 0  2.0625 1.5 0  3 0.5625 0  0 0.9375 0  0 1.3125 0  2.4375 1.5 0  2.196044825237544 1.113880351688974 0  2.210431846521007 0.695834380790271 0  0.8262236946704767 1.326155809103077 0  2.523003751809735 0.8349453583788917 0  1.882533682486712 1.30904671408086 0  2.845 0 0  2.813607095438526 0.1837681344374856 0  2.298597604800397 0.280431891689246 0  1.972062138207083 0.8834951655964545 0  1.943392101370151 0.2475417334111557 0  2.828663592588797 0.4267055109367558 0  2.803791026183859 0.7364868569598708 0  2.523250359922468 0.5585816735541729 0  2.602935827188279 1.053310414780935 0  1.692458045540587 1.328962813001376 0  1.232271555781778 0.154950218767993 0  1.36985844680238 1.21899526865025 0  1.785321775315372 1.004919979330962 0  2.534633602602767 0.2439507161942105 0  0.7651985499724481 1.092302611968735 0  2.637828969450683 0.71279922663893 0  1.100469689258933 0.6843495375675052 0  1.315800235513153 0.4755545830105288 0  1.405546076805209 0.1782543944119986 0  2.826282129872177 1.326282129872177 0  0.575884497984488 0.4967904868667201 0  0.1516233666565383 0.826056857120972 0  0.3483704262380678 0.6272257636119053 0  1.568331672486121 1.108640197801574 0  1.475101554186818 0.9082985267599337 0  1.868470483419324 0.6670273102604994 0  0.3467545185571825 0.9433646607171683 0  2.15625 1.373787484318285 0  1.41742615593433 1.367603819494743 0  2.854904919456998 0.8828609574219635 0  0.9476741986655126 0.255395459587152 0  1.267450600339273 1.091056105706913 0  0.114311143675241 0.65625 0  0.65625 1.37859278398136 0  2.170651243108527 0.4023187025489676 0  1.21875 1.380886352874642 0  0.3798992233573569 0.1593768045411093 0  0.9831420651531181 0.9956358347774316 0  1.456186685150796 0.4319140716985383 0  2.586721317152155 0.4269308613840649 0  2.863979293145301 1.178604739864835 0  1.658646098314701 0.8045749301224775 0  1.383553643956373 0.7098158224076794 0  0.154006438477797 1.138458423126247 0  2.856044831401163 0.5977865618779903 0  0.553876003596687 1.130313370813194 0  2.680231675041409 1.360526450748891 0  2.486056782242186 0.9722817331473952 0  1.891212003911469 0.3789027676568836 0  0.8138227412155181 0.37102502168449 0  1.064674644221452 1.192903489156071 0  0.6045358160041144 0.2320910326486189 0  1.194008126159845 0.4081242368041457 0  2.138311355076408 0.5770795769918613 0  0.134142636330111 0.2313017261983794 0  0.8460209454012837 0.8084258449188535 0  0.1293517554287885 0.4305045409359897 0  0.3205820557512212 1.373790064297892 0  0.2928933613730453 1.155196229839076 0  2.404969940572298 1.358123451328196 0  0.9933877375830629 0.5899302104012978 0  2.090287791367255 0.1211621925433303 0  2.904889173308855 0.28125 0  0.1246766077328953 1.375323392267105 0  2.302041695038792 0.7931069109810627 0  2.389228836127323 0.5648368411465005 0  1.886839219693261 1.174850198523801 0  1.96875 1.5 0  2.005259577028834 1.368575570359887 0  2.58746882374347 1.183267841227943 0  1.646515580921743 0.3486369169127919 0  1.980147904783248 0.5942137934419368 0  2.07740167257538 1.055304717195479 0  1.57300338334685 0.6065157750282059 0  1.59375 1.5 0  1.679678032322464 0.2100937046526968 0  2.252673654577562 0.9960348417811178 0  2.17832845930892 0.8178435559778986 0  1.78125 1.5 0  2.021596890434516 0.349571947542988 0  1.79926971381977 0.1752587163176004 0  0.503878860142697 0.3943984894172995 0  1.146622573165596 0.8060813049917908 0  3 1.40625 0  2.649807995179342 0.2020005420916801 0  0.3438742656237004 0.2790576170649142 0  1.546875 1.386334759531577 0  3 0.09375 0  1.320989371181643 0.9800954309611291 0  1.270074893254929 0.7536540780084714 0  2.70770359261854 0.4387759707667409 0  0.5606072232931772 1.296106034499297 0  0.7858104720553775 1.211812834033452 0  2.317237622700128 1.09958886094401 0  2.518665098961854 0.68166123334458 0  1.747777558052355 0.4158756118164814 0  1.683029275145126 1.069756268641544 0  0.46875 1.5 0  2.407758410849746 0.2048845882413086 0  2.396684507181482 1.235853070423643 0  1.919569286509587 0.7755948020085885 0  2.290752654053557 0.4002939182457882 0  0.2367853577638227 0.6856443876677092 0  1.644821718344275 1.219632237269969 0  0 1.03125 0  0.5821665354391095 0.7878606619613046 0  0.6422016866915001 0.674771619551397 0  0.2917070890414653 0.4458139506278615 0  0.7912018819596407 0 0  0.1045102716700244 1.249819735557644 0  1.151091219660612 0.9224858968529193 0  2.719174284445647 1.071883664029489 0  0.7216906855953001 0.918545393630683 0  0.2528020696803429 0.8787006417214202 0  1.726437981314609 0.9055659975386789 0  1.466273966174817 1.158744006060248 0  0.500278661176367 0.9948136517426003 0  1.114706325735654 0.2023659607018325 0  1.193213601931895 0.2926984867334158 0  0.9725372994821596 0.3724679154862157 0  2.214714190066689 0.1991474088029779 0  2.411776451427861 0.8179674328277735 0  1.997105232295531 1.153439169094244 0  0.497834479014996 1.390464488336983 0  0.4532232073331143 0.5868543641678674 0  0.4094710929462204 0.7215160819073434 0  0.2730945637736263 0.1927345247561336 0  2.091452909128697 0 0  1.88727127931541 0.9574017932976476 0  0.7331675361580886 0.4562359341911597 0  0.808798696301996 0.1107204599928528 0  2.794056136375906 0.2935548935723623 0  2.172174128810919 1.263645408055929 0  2.266351953173893 1.389929090293708 0  0.9205129738298803 1.252177379624563 0  2.58760749
[...]
<PointData  Vectors="f_60"> 
<DataArray  type="Float64"  Name="f_60"  NumberOfComponents="3" format="ascii">-2.2760531314698244e-04 -4.9281367411572877e-04 0.0000000000000000e+00  3.5853375283126680e-04 -1.1522923880821935e-04 0.0000000000000000e+00  4.3672425004920930e-04 2.9109923704989394e-04 0.0000000000000000e+00  5.8954683453824833e-04 6.7330886880762714e-04 0.0000000000000000e+00  -7.7221328148546325e-05 6.1819363517305972e-04 0.0000000000000000e+00  -4.5008564145529467e-04 9.6703214385873725e-04 0.0000000000000000e+00  1.5608684021316938e-04 1.0461955611031036e-03 0.0000000000000000e+00  1.1566380378573634e-04 3.8082335762196760e-04 0.0000000000000000e+00  8.1056005877832519e-04 1.3879553356405275e-03 0.0000000000000000e+00  5.9972193362168625e-04 3.8879259489922407e-04 0.0000000000000000e+00  8.4329494388141928e-05 2.6760732873928552e-04 0.0000000000000000e+00  4.6893093559499660e-04 8.0677229843450159e-04 0.0000000000000000e+00  2.2666020360228458e-04 9.6783441330826933e-04 0.0000000000000000e+00  1.4320509578664382e-04 3.4678932703726030e-04 0.0000000000000000e+00  8.6366798256756980e-05 7.1517273674017541e-04 0.0000000000000000e+00  -5.1936497058060148e-04 9.3740547953786774e-04 0.0000000000000000e+00  -2.6767641248359654e-04 5.7551197242408918e-04 0.0000000000000000e+00  -5.5024429036438691e-04 4.7476708876450915e-07 0.0000000000000000e+00  -2.4372314479671612e-04 1.3542330594155335e-03 0.0000000000000000e+00  -3.2259746157715642e-04 1.7587650521622450e-03 0.0000000000000000e+00  -3.2705566125732275e-04 5.6771852681311347e-04 0.0000000000000000e+00  4.0846367064703165e-05 7.9700995045665251e-04 0.0000000000000000e+00  2.0945805078930138e-04 8.5918286107707054e-04 0.0000000000000000e+00  3.9547097126066243e-04 7.6605039589552762e-04 0.0000000000000000e+00  -5.0589974127214781e-04 8.3603391539186368e-04 0.0000000000000000e+00  -7.8240106678151549e-04 5.3859685196194502e-04 0.0000000000000000e+00  -5.8671992667497144e-04 2.6469353156364155e-05 0.0000000000000000e+00  -5.9784060865043049e-04 1.1146474984740770e-03 0.0000000000000000e+00  -8.0535872195492807e-04 1.1318781687218171e-03 0.0000000000000000e+00  8.9481424701972096e-05 8.7510604870114919e-04 0.0000000000000000e+00  -1.4717026843860526e-04 1.2053561125732542e-03 0.0000000000000000e+00  8.6187503956373652e-04 6.3573269821028502e-04 0.0000000000000000e+00  -9.1438704094105991e-04 1.1686244110267099e-03 0.0000000000000000e+00  -4.0784903655856261e-04 2.7765431327132550e-04 0.0000000000000000e+00  -4.9809715370107885e-04 9.1189125288488755e-05 0.0000000000000000e+00  -2.3583139611346742e-04 4.6371388284998538e-04 0.0000000000000000e+00  -3.0993338380680099e-04 7.7479594790364891e-04 0.0000000000000000e+00  1.0345113190737438e-04 1.3828470642900787e-03 0.0000000000000000e+00  4.1752672784706310e-04 8.3029143370391234e-04 0.0000000000000000e+00  1.8075397363507508e-05 5.9856652093260589e-04 0.0000000000000000e+00  -5.8859317472565158e-04 5.8633068628601449e-04 0.0000000000000000e+00  4.2090207858487609e-04 1.3277424723657233e-04 0.0000000000000000e+00  7.0090921696393520e-04 5.3487424710726744e-04 0.0000000000000000e+00  1.3009613948297382e-04 9.3406690269104919e-04 0.0000000000000000e+00  4.4463084849016382e-04 1.0240361466762108e-03 0.0000000000000000e+00  -1.6242610130473090e-04 5.6082213087746261e-04 0.0000000000000000e+00  3.8634391344031165e-04 -1.2937974287451513e-04 0.0000000000000000e+00  -3.0680974606956844e-04 1.8292435654060051e-03 0.0000000000000000e+00  6.6039887186693073e-04 7.4325311395152468e-04 0.0000000000000000e+00  7.0900566553493420e-04 2.2325291955884125e-04 0.0000000000000000e+00  4.3400092332370951e-04 5.8531485777219450e-04 0.0000000000000000e+00  1.7257926639159960e-03 1.5012704652030816e-03 0.0000000000000000e+00  5.9377018978130751e-04 -5.0085638321541761e-05 0.0000000000000000e+00  -1.2172133188253210e-04 2.4299708415093346e-04 0.0000000000000000e+00  -3.1830473595647707e-04 -2.5090211967102846e-04 0.0000000000000000e+00  2.0720532573956303e-04 -7.8282750996131020e-04 0.0000000000000000e+00  -3.2475071009480244e-03 9.1856907768666173e-04 0.0000000000000000e+00  1.2416427632132277e-03 -4.3870410557505695e-06 0.0000000000000000e+00  9.2040959019924634e-06 1.1623091042766368e-05 0.0000000000000000e+00  1.9762393141700067e-04 -7.7097602047443957e-04 0.0000000000000000e+00  5.7415912825862372e-06 -2.2031986956712167e-05 0.0000000000000000e+00  1.5986903062236324e-04 7.0114687427857395e-04 0.0000000000000000e+00  1.0154514415743008e-04 -4.2268296978934281e-04 0.0000000000000000e+00  -8.1548627747574611e-05 -5.1309503799087540e-04 0.0000000000000000e+00  -1.3369349412416194e-04 -2.7921937455889777e-04 0.0000000000000000e+00  3.4018218361523765e-02 2.5763189124164732e+00 0.0000000000000000e+00  3.0330632273517809e-02 -1.5140532889454275e+00 0.0000000000000000e+00  4.1695224401849515e-02 3.1103022856934546e+00 0.0000000000000000e+00  3.6076228441285163e-02 8.2394935280770620e-01 0.0000000000000000e+00  -5.7313746506121972e-04 -8.3781976894779309e-04 0.0000000000000000e+00  5.7324708070495512e-04 1.9507720212678738e-04 0.0000000000000000e+00  -4.7286554445150698e-04 -5.2389930198596996e-04 0.0000000000000000e+00  -3.1618751157430187e-02 -2.0138662547808145e-01 0.0000000000000000e+00  1.0768640544165120e-03 -4.9638105383503436e-04 0.0000000000000000e+00  1.9229341141075514e-05 -7.1865692745877850e-05 0.0000000000000000e+00  5.2676492196554259e-01 2.7855664436593557e+00 0.0000000000000000e+00  1.1916828228333295e-01 -1.6366978318336103e+00 0.0000000000000000e+00  -1.1116377794898913e-01 1.5614082746066202e+00 0.0000000000000000e+00  3.8042261148511238e-04 -9.0243039379386922e-04 0.0000000000000000e+00  -3.7222150256651154e-02 -1.8201590524552751e+00 0.0000000000000000e+00  -9.6472227185343346e-02 1.3238569362505797e+00 0.0000000000000000e+00  -4.4549628005585941e-03 -8.8493910083706424e-04 0.0000000000000000e+00  9.7571993219482990e-04 -1.6208999346317141e+00 0.0000000000000000e+00  6.9150051131180876e-02 2.2278167710669572e+00 0.0000000000000000e+00  1.4386056934650496e-01 2.2774857991387125e+00 0.0000000000000000e+00  -3.1162747603664764e-01 3.2661614968737771e+00 0.0000000000000000e+00  1.4451143538761412e-03 1.4187503525995202e+00 0.0000000000000000e+00  5.1273302410289934e-01 3.6359292111813728e+00 0.0000000000000000e+00  8.6445426940982659e-02 -1.3117278408367898e+00 0.0000000000000000e+00  1.4833299273969400e-01 1.7093853639607843e+00 0.0000000000000000e+00  -5.1446396705962039e-01 1.2064571891411633e+00 0.0000000000000000e+00  1.2153882968346434e-02 2.1687240292411611e+00 0.0000000000000000e+00  1.8984864566527388e-02 -1.8415522206646975e+00 0.0000000000000000e+00  1.2836187737986669e-02 2.2496016687886145e+00 0.0000000000000000e+00  1.2041726298787905e+00 3.4126953709677452e+00 0.0000000000000000e+00  -1.2245651781018815e-01 2.7251816206491264e-01 0.0000000000000000e+00  -1.4561911869716743e-01 2.3599669121232947e+00 0.0000000000000000e+00  -1.2663970324002768e-01 5.7634177895441743e-02 0.0000000000000000e+00  8.4422065577355529e-02 5.6146004917278891e-01 0.0000000000000000e+00  1.0428084769063685e-05 3.7148325587510393e-06 0.0000000000000000e+00  -8.8620815832315236e-01 2.9156589292970319e+00 0.0000000000000000e+00  -5.2359093298209820e-02 2.1795224601593426e+00 0.0000000000000000e+00  1.1847183704787797e-02 3.9503414952642041e-01 0.0000000000000000e+00  -9.2522080890261194e-03 -1.4018512503703788e+00 0.0000000000000000e+00  -1.0975213299825148e-02 9.0311083670326886e-01 0.0000000000000000e+00  -8.4980317175923054e-02 1.7454656454788384e+00 0.0000000000000000e+00  1.2329193971366847e-02 -1.8877823995118190e+00 0.0000000000000000e+00  -2.3760944943985035e-01 2.2452512021161355e+00 0.0000000000000000e+00  7.6581134108228407e-02 -2.0993722452109518e+00 0.0000000000000000e+00  -8.1985659348773731e-03 5.6575741961793129e-04 0.0000000000000000e+00  -6.1624621017110519e-02 1.9704726228995042e+00 0.0000000000000000e+00  7.1974396137949093e-02 -1.8555579233315640e+00 0.0000000000000000e+00  1.5051956069118785e-01 8.1616490653200605e-02 0.0000000000000000e+00  2.0600808412310315e-01 -2.2892478756474270e+00 0.0000000000000000e+00  5.9100880117480013e-02 -6.4405292603326281e-01 0.0000000000000000e+00  -2.9980934719470931e-02 2.0741581963814135e+00 0.0000000000000000e+00  9.0359857364092411e-02 -1.8776385963434923e+00 0.0000000000000000e+00  7.9214836665745136e-01 -1.3212776871799519e+00 0.0000000000000000e+00  3.5930075419181134e-01 -1.9040160088050935e+00 0.0000000000000000e+00  2.5367588570895439e-01 1.8517880071962214e+00 0.0000000000000000e+00  6.6167528966385836e-02 -8.1250942357071820e-01 0.0000000000000000e+00  -7.2988328406204143e-04 -6.1272271846334172e-05 0.0000000000000000e+00  3.7415570916277080e-03 -5.3957039115999519e-04 0.0000000000000000e+00  -2.3502690202192739e-01 -1.5701718879925539e+00 0.0000000000000000e+00  -1.0999765004855280e-01 -2.2893227162944694e+00 0.0000000000000000e+00  2.2774052745761872e-04 -5.5611968826110229e-04 0.0000000000000000e+00  -1.2512678486890988e-01 -1.9000275270294749e+00 0.0000000000000000e+00  -3.5033171311713893e-02 1.0466318431651442e+00 0.0000000000000000e+00  -4.9878906713073691e-02 3.3253273253098224e-03 0.0000000000000000e+00  -3.8420947770863615e-04 -2.2611148857204841e-04 0.0000000000000000e+00  -8.1870088603272896e-04 7.5311272565691423e-04 0.0000000000000000e+00  2.8851091726493555e-02 2.2927628655633665e+00 0.0000000000000000e+00  2.3814001557551631e-02 2.2087685286449541e+00 0.0000000000000000e+00  9.1399277529095338e-02 -1.2878285800598832e+00 0.0000000000000000e+00  3.8670116052770098e-02 1.0431283052491676e+00 0.0000000000000000e+00  1.0232906444476319e-02 -1.4106431794488081e+00 0.0000000000000000e+00  1.9215811897824751e-02 -1.7444121956705509e+00 0.0000000000000000e+00  1.3463842380794001e-03 2.0434600406335905e-04 0.0000000000000000e+00  6.3665547780815257e-01 1.5832724189906047e-01 0.0000000000000000e+00  6.2096942335676544e-02 -9.4973145351093757e-01 0.0000000000000000e+00  -2.4058576037517044e-04 -8.9469954876539206e-04 0.0000000000000000e+00  6.6158290692477646e-04 -6.9546164962724791e-04 0.0000000000000000e+00  4.8746833043154510e-04 -5.3662343235411612e-04 0.0000000000000000e+00  -9.0557440210852587e-04 -1.1025284304140340e-03 0.0000000000000000e+00  -2.7739682119475926e-03 -1.0509957891079889e-03 0.0000000000000000e+00  2.5608596339869280e-06 -3.8060082348892968e-05 0.0000000000000000e+00  7.0118245955268381e-05 -4.0079746422504105e-04 0.0000000000000000e+00  -6.2921286999856883e-04 -1.0055383252536758e-03 0.0000000000000000e+00  2.1691074331479204e-01 -2.9337013800716649e-01 0.0000000000000000e+00  -7.5213826798563893e-02 -1.0750113829862078e+00 0.0000000000000000e+00  -2.6017209943416036e-01 3.4838592204619490e-01 0.0000000000000000e+00  4.6500034528905700e-02 -8.7306916694038128e-01 0.0000000000000000e+00  8.3316512272473026e-02 -1.8782470610396368e-01 0.0000000000000000e+00  1.2346550541954228e-03 1.7459388579222314e-04 0.0000000000000000e+00  -1.6379603776522067e+00 -3.9649511691637229e-01 0.0000000000000000e+00  -3.5965117918777711e-01 -3.1594856321573195e-01 0.0000000000000000e+00  4.5880631106718701e-02 -1.8376505245507575e+00 0.0000000000000000e+00  -1.8638206094428819e-01 -2.0872424379620358e+00 0.0000000000000000e+00  -1.0639512044747945e+00 -4.6378112490098661e-01 0.0000000000000000e+00  -1.6407727476988263e-01 2.8040487143850529e-01 0.0000000000000000e+00  -4.1659509191367966e-01 -1.1884219569941799e+00 0.0000000000000000e+00  4.9450532470208697e-01 -7.5202778414639015e-01 0.0000000000000000e+00  -1.0120662092987649e-01 -1.3001131631740284e+00 0.0000000000000000e+00  1.8137612774908987e-01 1.8656780442453753e+00 0.0000000000000000e+00  -7.2529024962728797e-02 -2.0450493291424907e+00 0.0000000000000000e+00  3.4058595521786403e-02 2.4249323937860230e+00 0.0000000000000000e+00  -9.1805292144911887e-01 -1.4739474312482548e+00 0.0000000000000000e+00  -5.1921114527322183e-02 -2.1964778844236190e+00 0.0000000000000000e+00  1.1026364114696534e-02 2.0091190473175278e+00 0.0000000000000000e+00  4.3306700513916871e-02 -1.1720697243611815e+00 0.0000000000000000e+00  6.2234825319366797e-02 -1.6451323445784569e+00 0.0000000000000000e+00  1.4235321269284557e-01 -1.0656771393168665e+00 0.0000000000000000e+00  1.8286922876445597e+00 1.0262008665584117e+00 0.0000000000000000e+00  8.3516355253205332e-02 1.9235842137958046e+00 0.0000000000000000e+00  2.0765676193635455e-02 -2.4532781258804177e+00 0.0000000000000000e+00  5.3457886984937385e-02 1.2742317002191879e+00 0.0000000000000000e+00  -3.3993041776481402e-02 3.7957969090046656e-01 0.0000000000000000e+00  -7.4596835460387896e-03 2.1428274366651703e+00 0.0000000000000000e+00  -1.2585489816646988e-02 5.6555276224660378e-01 0.0000000000000000e+00  -1.9376100588868277e-02 1.2311010855496265e+00 0.0000000000000000e+00  4.3087331238713245e-01 1.2502240749849456e+00 0.0000000000000000e+00  -3.7788674565148589e-01 -4.0668300187259497e-02 0.0000000000000000e+00  1.6149322032025787e-01 -4.7407772176003055e-01 0.0000000000000000e+00  -9.4551260607379679e-03 1.3054071371897553e+00 0.0000000000000000e+00  -6.4353486339883886e-02 3.2512984148244539e-01 0.0000000000000000e+00  3.7668512838716410e-02 -1.7933504840156012e+00 0.0000000000000000e+00  4.9040943489692776e-02 6.3116214543899352e-01 0.0000000000000000e+00  -2.3053213958089164e-01 2.6372122725977781e-01 0.0000000000000000e+00  -6.5541443162506610e-02 1.8099662576476230e+00 0.0000000000000000e+00  3.6418520547153485e-02 -1.1382035992121083e-01 0.0000000000000000e+00  -3.9137964528680798e-02 -4.4930585705322462e-01 0.0000000000000000e+00  4.9866704095345618e-02 1.4326094482015503e+00 0.0000000000000000e+00  -6.0712516655307591e-01 1.5249266746131684e-01 0.0000000000000000e+00  1.0176372709851422e+00 -5.2119270968966369e-01 0.0000000000000000e+00  1.8913130985921150e-02 -2.1557882360094447e+00 0.0000000000000000e+00  3.6154417210708126e-02 -1.7410351643539084e+00 0.0000000000000000e+00  -1.7237320350132732e-02 -2.3988517523519688e+00 0.0000000000000000e+00  -5.7674781179722523e-01 -1.9445158178069119e-01 0.0000000000000000e+00  -1.0205892797070996e-01 1.4084450739360637e+00 0.0000000000000000e+00  1.0681275641474834e+00 1.3973351970292642e+00 0.0000000000000000e+00  3.1390009381178852e-01 8.2171653604733574e-01 0.0000000000000000e+00  -1.1258201498810134e-01 -7.2036480665845026e-01 0.0000000000000000e+00  7.3996924087638138e-02 -6.5791145683926966e-01 0.0000000000000000e+00  -8.7145504580623492e-02 -2.1671969883784339e+00 0.0000000000000000e+00  1.3639325352290918e-01 2.2204985691453807e+00 0.0000000000000000e+00  5.2867032493459178e-02 2.3489080896914571e+00 0.0000000000000000e+00  -7.4584005472547316e-02 1.9461255570695604e+00 0.0000000000000000e+00  1.1724309517720433e-01 -1.9727194687328826e+00 0.0000000000000000e+00  7.1925201738661229e-03 9.8104245274179913e-01 0.0000000000000000e+00  8.9627248467715803e-02 -2.1232781038760979e+00 0.0000000000000000e+00  -7.1193765473270457e-02 1.7938854853905881e+00 0.0000000000000000e+00  -8.9420542939454700e-02 2.2740759612803236e+00 0.0000000000000000e+00  5.0839838295656958e-01 2.3955181888730968e+00 0.0000000000000000e+00  5.7546130322611147e-02 -7.9273093921088345e-01 0.0000000000000000e+00  -2.0782225466083731e-01 2.2411127878980652e+00 0.0000000000000000e+00  -1.5565283328593287e+00 2.2465844547956739e+00 0.0000000000000000e+00  -4.5912114127342932e-02 -1.9603632212102839e+00 0.0000000000000000e+00  3.9594429736932168e-02 -5.1703750726013153e-01 0.0000000000000000e+00  -1.3088069675103567e-01 3.0100378255419389e+00 0.0000000000000000e+00  5.7357492805999249e-02 -3.2398826103770845e-01 0.0000000000000000e+00  2.8758162144096051e-04 -4.5483426759579474e-04 0.0000000000000000e+00  -1.1508510794755213e-01 -8.5276663883558013e-01 0.0000000000000000e+00  6.7510410663955756e-01 -1.5285310014730278e+00 0.0000000000000000e+00  -2.5699457392741001e-02 -2.2298839980848570e+00 0.0000000000000000e+00  -6.0594493305218072e-02 -1.5282921573210513e+00 0.0000000000000000e+00  1.6560645124698306e-01 2.3441661039176780e+00 0.0000000000000000e+00  1.4947252685729997e-02 2.5182269389815193e-01 0.0000000000000000e+00  -4.2108258410918445e-04 -8.2882693462028834e-04 0.0000000000000000e+00  3.3672120027107580e-02 -1.6749582372913496e+00 0.0000000000000000e+00  1.6457906584352083e-01 -1.8614169266521039e+00 0.0000000000000000e+00  4.5353151856568706e-02 4.2564765709770996e-01 0.0000000000000000e+00  -3.5663300186851963e-04 -9.3705807089794273e-04 0.0000000000000000e+00  -1.5289479875614301e-01 3.3675228086431869e-01 0.0000000000000000e+00  -1.5868409526267055e-01 2.2663866666967531e+00 0.0000000000000000e+00  1.4391722331950405e-01 -1.2368686130382764e+00 0.0000000000000000e+00  6.9697193303289258e-03 1.0519662341323730e+00 0.0000000000000000e+00  1.2704333815318040e-03 8.5115340048884803e-05 0.0000000000000000e+00  -1.1283900918028571e+00 2.6250599535329648e+00 0.0000000000000000e+00  1.5989469877625687e-01 1.6065569595137470e+00 0.0000000000000000e+00  1.1781091512816524e-01 1.0631892897932822e+00 0.0000000000000000e+00  -1.5013411005790780e-02 -3.9851400703848428e-03 0.0000000000000000e+00  -1.1354818161367321e-02 -1.8936104429551308e+00 0.0000000000000000e+00  1.9485857911826589e-02 3.3772342986716691e-01 0.0000000000000000e+00  -6.2889243226745051e-01 2.9204165673502107e+00 0.0000000000000000e+00  -2.0988292850829005e-01 1.7063513125592731e+00 0.0000000000000000e+00  -1.0805267871245314e-01 -1.5786475380349534e+00 0.0000000000000000e+00  3.2638938372887399e-01 -3.7648955094218373e-01 0.0000000000000000e+00  -2.0414015784693978e-01 -9.4887868818034526e-01 0.0000000000000000e+00  -2.7405889082767653e-02 1.2632783533793199e+00 0.0000000000000000e+00  1.5879728152689798e-02 -1.6944359135630616e+00 0.0000000000000000e+00  6.6766555274014826e-04 -6.2201504635628010e-04 0.0000000000000000e+00  -5.6637976023995185e-01 2.0900169616255599e+00 0.0000000000000000e+00  5.4294248269336132e-01 2.6723545145058734e+00 0.0000000000000000e+00  1.5161824476475202e-03 -1.5756173414413883e+00 0.0000000000000000e+00  -3.1492245464161817e-01 -6.4617186162295848e-01 0.0000000000000000e+00  3.5399666707786645e-02 4.4273050219300997e-01 0.0000000000000000e+00  -1.7767457656436447e-02 -2.2761103024662108e+00 0.0000000000000000e+00  -1.3441351915903518e-05 -4.2541837349145193e-05 0.0000000000000000e+00  7.5758833178505717e-03 2.1357873351352614e+00 0.0000000000000000e+00  3.7781056392936760e-02 1.5127735545152556e+00 0.0000000000000000e+00  7.9162788442672896e-02 2.2541485427106749e+00 0.0000000000000000e+00  1.9891204753171891e-04 6.7396175876663648e-04 0.0000000000000000e+00  -1.8046526663111843e-02 -1.4562040298621257e+00 0.0000000000000000e+00  -2.7150626460836911e-02 1.2801139798727443e+00 0.0000000000000000e+00  9.3180500450785009e-01 3.6701399006159887e+00 0.0000000000000000e+00  1.9963457776329390e-03 -1.9740393293161629e+00 0.0000000000000000e+00  -7.0702443334633184e-03 1.2078732534519729e+00 0.0000000000000000e+00  2.9426225191733969e-02 2.1503278356210226e-01 0.0000000000000000e+00  -7.5244447026107913e-02 1.9200769629346757e+00 0.0000000000000000e+00  -2.3156153593483886e-02 -1.1551629023010779e+00 0.0000000000000000e+00  3.0716075438353130e-01 -6.2970530162524552e-01 0.0000000000000000e+00  7.6811361042898027e-02 2.3244645782728539e+00 0.0000000000000000e+00  7.4060606307604110e-02 2.2905025485553818e-01 0.0000000000000000e+00  -3.9834941624259662e-01 -1.5802646724454228e+00 0.0000000000000000e+00  1.8955881226235041e-01 3.1211214275367083e+00 0.0000000000000000e+00  1.2045756701039952e-01 -1.2374686782545223e+00 0.0000000000000000e+00  -4.6543299434685820e-01 -7.8529337999670523e-01 0.0000000000000000e+00  9.5817036739695619e-02 -2.3984747653269776e+00 0.0000000000000000e+00  5.6339413785718474e-02 -1.5539521753851380e+00 0.0000000000000000e+00  4.6260704226219501e-01 1.6538073762479919e+00 0.0000000000000000e+00  -1.5592699930560384e-04 3.3327079257793176e-04 0