<?xml version="1.0"?>
<VTKFile type="UnstructuredGrid"  version="0.1"  >
<UnstructuredGrid>
<Piece  NumberOfPoints="5089" NumberOfCells="9865">
<Points>
<DataArray  type="Float64"  NumberOfComponents="3"  format="ascii">0 1.5 0  0 0 0  0.1029058182573948 0 0  0.1029058182573948 0.02393156642875577 0  0.1251489251828899 0.06631226582407952 0  0.1645395112957465 0.09350162426854149 0  0.2120536680255323 0.0992708874098054 0  0.2568064746731156 0.08229838658936564 0  0.288545602565321 0.04647231720437685 0  0.3 0 0  0.51 0 0  0.5220577136594005 0.04499999999999999 0  0.555 0.07794228634059948 0  0.6 0.09 0  0.645 0.07794228634059946 0  0.6779422863405995 0.04499999999999999 0  0.6899999999999999 0 0  0.8924037639192813 0 0  0.8924037639192813 0.02287028598995353 0  0.9110081306187559 0.06465637775217206 0  0.9450000000000001 0.09526279441628825 0  0.9885018690405581 0.1093974084905101 0  1.033991869381244 0.1046162167924669 0  1.073604366699474 0.08174593080251337 0  1.100490000340686 0.04474103073833802 0  1.11 0 0  1.502905818257395 0 0  1.502905818257395 0.02393156642875577 0  1.52514892518289 0.06631226582407952 0  1.564539511295747 0.09350162426854149 0  1.612053668025532 0.0992708874098054 0  1.656806474673116 0.08229838658936564 0  1.688545602565321 0.04647231720437685 0  1.7 0 0  1.82324056211084 0 0  1.82324056211084 0.02253860454731437 0  1.847611141284377 0.06045996594834066 0  1.888614812938137 0.07918571535047463 0  1.933233201040151 0.07277055962836147 0  1.967300282626494 0.0432512653964478 0  1.98 0 0  2.202905818257395 0 0  2.202905818257395 0.02393156642875577 0  2.22514892518289 0.06631226582407952 0  2.264539511295746 0.09350162426854149 0  2.312053668025532 0.0992708874098054 0  2.356806474673115 0.08229838658936564 0  2.388545602565321 0.04647231720437685 0  2.4 0 0  2.51 0 0  2.522057713659401 0.04499999999999999 0  2.555 0.07794228634059948 0  2.6 0.09 0  2.645 0.07794228634059946 0  2.677942286340599 0.04499999999999999 0  2.69 0 0  3 0 0  3 1.5 0  0 0.75 0  1.5 1.5 0  0 0.375 0  0 0.1875 0  0.75 1.5 0  2.25 1.5 0  3 0.75 0  1.803364316093307 0.8194216192460635 0  0.7085714285714286 0.7914285714285714 0  2.396697907928333 0.698796196655595 0  1.26039230397729 0.6323879781298929 0  1.125 1.5 0  3 1.125 0  0.375 1.5 0  1.418284719659703 1.05567510076647 0  2.625 1.5 0  0 1.125 0  2.4375 1.120298797465005 0  0.4140309460188812 0.4815551607069073 0  0.9375 1.133540466589862 0  1.875 1.5 0  0.4143011358073044 1.085698864192695 0  2.042557228405723 0.4764057674039468 0  3 0.375 0  1.615235786026768 0.4839120951620492 0  0.9172436665953028 0.4786128535408891 0  2.136144598898015 0.9367443054342734 0  2.712089662802327 0.5625 0  1.752709466448716 1.168812671476193 0  2.696461986964791 0.9012929362807449 0  1.307422665144653 0.3094324321200764 0  2.0625 1.24476578117044 0  2.446405755792607 0.3860402512509704 0  0.3158723471199726 0.7836709721106835 0  1.018921994797561 0.831404696897531 0  1.521099871135537 0.7571953762650785 0  2.718190509848388 1.189592528269884 0  0.665307193508031 1.225469494285917 0  1.199897701782483 1.230481185797768 0  0.2233959957266646 1.276604004273335 0  0.6649397520368477 0.3607836886074089 0  0 0.5625 0  2.685543358160364 0.3192521589045413 0  1.775621962986754 0.2975552026784072 0  2.025654700292002 0.7195245521041802 0  0.1961827192748887 0.9897295638426992 0  1.25729921569077 0.8746334216075233 0  1.534142212444284 1.264044413891354 0  1.624439414641745 0.9597398592303362 0  2.117668421489377 0.2641528949307972 0  1.945094170902585 1.053880768096555 0  3 0.1875 0  0.6251639682912251 1.002291403912492 0  0.719601375969486 0.5727782913443102 0  0.2313942916225519 0.3335511938861402 0  0.4687668770508729 0.274248243200137 0  0.5143238740412669 0.6811446824633056 0  1.829350286632844 0.5059917594077202 0  1.082379929992235 0.3249418149194327 0  2.540679850598416 1.305492850437689 0  2.282283153018704 1.279796495628565 0  2.355666841619378 0.9154942188580675 0  0.2114722061938988 0.5448236655965607 0  3 1.3125 0  2.8125 1.5 0  2.263750685400308 0.5173381079832993 0  0.4343085727049624 1.296611441170993 0  1.6875 1.5 0  1.016037518489582 1.324553740130353 0  0.846292314151325 0.9469220663180872 0  1.122827752751251 1.035495517001457 0  1.3125 1.5 0  1.306452909128697 0 0  0.8906638629565067 0.6773217378320744 0  1.517175933126145 0.2981487507037606 0  0.7996957920902151 0.2224603600775558 0  1.446370464174038 0.5785990786868803 0  1.689965192988266 0.6625083927402473 0  0.4864273298880485 0.870473805626289 0  3 0.9375 0  2.831315819563651 1.036097903808422 0  1.106384347284952 0.5163011422226527 0  0.5625 1.5 0  0.9375 1.5 0  0.1875 1.5 0  2.0625 1.5 0  3 0.5625 0  0 0.9375 0  0 1.3125 0  2.4375 1.5 0  2.196044825237544 1.113880351688974 0  2.210431846521007 0.695834380790271 0  0.8262236946704767 1.326155809103077 0  2.523003751809735 0.8349453583788917 0  1.882533682486712 1.30904671408086 0  2.845 0 0  2.813607095438526 0.1837681344374856 0  2.298597604800397 0.280431891689246 0  1.972062138207083 0.8834951655964545 0  1.943392101370151 0.2475417334111557 0  2.828663592588797 0.4267055109367558 0  2.803791026183859 0.7364868569598708 0  2.523250359922468 0.5585816735541729 0  2.602935827188279 1.053310414780935 0  1.692458045540587 1.328962813001376 0  1.232271555781778 0.154950218767993 0  1.36985844680238 1.21899526865025 0  1.785321775315372 1.004919979330962 0  2.534633602602767 0.2439507161942105 0  0.7651985499724481 1.092302611968735 0  2.637828969450683 0.71279922663893 0  1.100469689258933 0.6843495375675052 0  1.315800235513153 0.4755545830105288 0  1.405546076805209 0.1782543944119986 0  2.826282129872177 1.326282129872177 0  0.575884497984488 0.4967904868667201 0  0.1516233666565383 0.826056857120972 0  0.3483704262380678 0.6272257636119053 0  1.568331672486121 1.108640197801574 0  1.475101554186818 0.9082985267599337 0  1.868470483419324 0.6670273102604994 0  0.3467545185571825 0.9433646607171683 0  2.15625 1.373787484318285 0  1.41742615593433 1.367603819494743 0  2.854904919456998 0.8828609574219635 0  0.9476741986655126 0.255395459587152 0  1.267450600339273 1.091056105706913 0  0.114311143675241 0.65625 0  0.65625 1.37859278398136 0  2.170651243108527 0.4023187025489676 0  1.21875 1.380886352874642 0  0.3798992233573569 0.1593768045411093 0  0.9831420651531181 0.9956358347774316 0  1.456186685150796 0.4319140716985383 0  2.586721317152155 0.4269308613840649 0  2.863979293145301 1.178604739864835 0  1.658646098314701 0.8045749301224775 0  1.383553643956373 0.7098158224076794 0  0.154006438477797 1.138458423126247 0  2.856044831401163 0.5977865618779903 0  0.553876003596687 1.130313370813194 0  2.680231675041409 1.360526450748891 0  2.486056782242186 0.9722817331473952 0  1.891212003911469 0.3789027676568836 0  0.8138227412155181 0.37102502168449 0  1.064674644221452 1.192903489156071 0  0.6045358160041144 0.2320910326486189 0  1.194008126159845 0.4081242368041457 0  2.138311355076408 0.5770795769918613 0  0.134142636330111 0.2313017261983794 0  0.8460209454012837 0.8084258449188535 0  0.1293517554287885 0.4305045409359897 0  0.3205820557512212 1.373790064297892 0  0.2928933613730453 1.155196229839076 0  2.404969940572298 1.358123451328196 0  0.9933877375830629 0.5899302104012978 0  2.090287791367255 0.1211621925433303 0  2.904889173308855 0.28125 0  0.1246766077328953 1.375323392267105 0  2.302041695038792 0.7931069109810627 0  2.389228836127323 0.5648368411465005 0  1.886839219693261 1.174850198523801 0  1.96875 1.5 0  2.005259577028834 1.368575570359887 0  2.58746882374347 1.183267841227943 0  1.646515580921743 0.3486369169127919 0  1.980147904783248 0.5942137934419368 0  2.07740167257538 1.055304717195479 0  1.57300338334685 0.6065157750282059 0  1.59375 1.5 0  1.679678032322464 0.2100937046526968 0  2.252673654577562 0.9960348417811178 0  2.17832845930892 0.8178435559778986 0  1.78125 1.5 0  2.021596890434516 0.349571947542988 0  1.79926971381977 0.1752587163176004 0  0.503878860142697 0.3943984894172995 0  1.146622573165596 0.8060813049917908 0  3 1.40625 0  2.649807995179342 0.2020005420916801 0  0.3438742656237004 0.2790576170649142 0  1.546875 1.386334759531577 0  3 0.09375 0  1.320989371181643 0.9800954309611291 0  1.270074893254929 0.7536540780084714 0  2.70770359261854 0.4387759707667409 0  0.5606072232931772 1.296106034499297 0  0.7858104720553775 1.211812834033452 0  2.317237622700128 1.09958886094401 0  2.518665098961854 0.68166123334458 0  1.747777558052355 0.4158756118164814 0  1.683029275145126 1.069756268641544 0  0.46875 1.5 0  2.407758410849746 0.2048845882413086 0  2.396684507181482 1.235853070423643 0  1.919569286509587 0.7755948020085885 0  2.290752654053557 0.4002939182457882 0  0.2367853577638227 0.6856443876677092 0  1.644821718344275 1.219632237269969 0  0 1.03125 0  0.5821665354391095 0.7878606619613046 0  0.6422016866915001 0.674771619551397 0  0.2917070890414653 0.4458139506278615 0  0.7912018819596407 0 0  0.1045102716700244 1.249819735557644 0  1.151091219660612 0.9224858968529193 0  2.719174284445647 1.071883664029489 0  0.7216906855953001 0.918545393630683 0  0.2528020696803429 0.8787006417214202 0  1.726437981314609 0.9055659975386789 0  1.466273966174817 1.158744006060248 0  0.500278661176367 0.9948136517426003 0  1.114706325735654 0.2023659607018325 0  1.193213601931895 0.2926984867334158 0  0.9725372994821596 0.3724679154862157 0  2.214714190066689 0.1991474088029779 0  2.411776451427861 0.8179674328277735 0  1.997105232295531 1.153439169094244 0  0.497834479014996 1.390464488336983 0  0.4532232073331143 0.5868543641678674 0  0.4094710929462204 0.7215160819073434 0  0.2730945637736263 0.1927345247561336 0  2.091452909128697 0 0  1.88727127931541 0.9574017932976476 0  0.7331675361580886 0.4562359341911597 0  0.808798696301996 0.1107204599928528 0  2.794056136375906 0.2935548935723623 0  2.172174128810919 1.263645408055929 0  2.266351953173893 1.389929090293708 0  0.9205129738298803 1.252177379624563 0  2.58760749
[...]
<PointData  Vectors="f_60"> 
<DataArray  type="Float64"  Name="f_60"  NumberOfComponents="3" format="ascii">9.4506463301206504e-06 -7.0234438296582771e-04 0.0000000000000000e+00  4.2030903576173982e-04 -4.8548259955751352e-05 0.0000000000000000e+00  4.2820956554319483e-04 5.6077939287560875e-04 0.0000000000000000e+00  4.7265232300456260e-04 7.6844250125741409e-04 0.0000000000000000e+00  -1.9775970887469653e-04 3.1538894850112475e-04 0.0000000000000000e+00  -6.3915749231495720e-05 8.9707929640257616e-04 0.0000000000000000e+00  3.0745846636155146e-04 8.4206901680236904e-04 0.0000000000000000e+00  -7.8804688937530451e-05 4.3067229756016851e-04 0.0000000000000000e+00  6.2671103383096793e-04 1.1149207889836225e-03 0.0000000000000000e+00  7.3461474200797695e-04 3.9367400677141985e-04 0.0000000000000000e+00  1.6564588362762725e-04 3.6063492689451885e-04 0.0000000000000000e+00  5.3522993313907764e-04 8.4549956604580017e-04 0.0000000000000000e+00  7.8259820387834445e-05 8.0443522754558095e-04 0.0000000000000000e+00  6.1878163755515041e-05 3.2995233417939932e-04 0.0000000000000000e+00  7.8485532392309212e-05 6.7478493058920075e-04 0.0000000000000000e+00  -4.3898056695550349e-04 8.2284693506131323e-04 0.0000000000000000e+00  -2.2682965775107367e-04 5.1205398715479925e-04 0.0000000000000000e+00  -8.1805588189907594e-04 7.1760622361338264e-05 0.0000000000000000e+00  -2.5454403391626730e-04 1.2969433288503042e-03 0.0000000000000000e+00  -2.9796072442128609e-04 1.1961134147969387e-03 0.0000000000000000e+00  -2.0987201556651441e-04 4.0153903066480215e-04 0.0000000000000000e+00  -4.0271640273871087e-05 8.4224099222239795e-04 0.0000000000000000e+00  2.6154022695876395e-04 6.8298480122198706e-04 0.0000000000000000e+00  4.1272149299936828e-04 4.7744251133685753e-04 0.0000000000000000e+00  -4.3475505986780456e-04 8.7968844438349907e-04 0.0000000000000000e+00  -7.5904191815844729e-04 8.7368546224656461e-04 0.0000000000000000e+00  -6.3267070787619744e-04 1.8374946761862666e-04 0.0000000000000000e+00  -5.7885043262464856e-04 9.9150232137860733e-04 0.0000000000000000e+00  -3.3877415536629342e-04 7.7591967308169609e-04 0.0000000000000000e+00  8.2329130179953301e-05 8.0021791398283276e-04 0.0000000000000000e+00  -2.5887215527939622e-04 1.0643400245009759e-03 0.0000000000000000e+00  7.4148920176783119e-04 4.8196193157486915e-04 0.0000000000000000e+00  -8.0708815518250147e-04 1.1383412442285334e-03 0.0000000000000000e+00  -4.7030537346306805e-04 7.9678510258661666e-04 0.0000000000000000e+00  -3.6016725874709124e-04 1.1420002313812236e-04 0.0000000000000000e+00  -1.5355692216879009e-04 4.0760968200375959e-04 0.0000000000000000e+00  2.9712273386835156e-05 7.4522447158505416e-04 0.0000000000000000e+00  -1.8947855063036940e-04 1.1419703432067805e-03 0.0000000000000000e+00  1.7278073207617177e-04 7.7843336438658040e-04 0.0000000000000000e+00  1.9779620599966131e-04 6.0447439406913412e-04 0.0000000000000000e+00  -4.2728178513755193e-04 8.4354601195674021e-04 0.0000000000000000e+00  5.4999313319500443e-04 5.8596052125340075e-04 0.0000000000000000e+00  6.6168218602349427e-04 8.4182792936394926e-04 0.0000000000000000e+00  2.6487422231354855e-04 7.4338485847775799e-04 0.0000000000000000e+00  4.0261714774912774e-05 6.8195781591443992e-04 0.0000000000000000e+00  -6.9276330543981582e-05 7.0735785460342073e-04 0.0000000000000000e+00  1.2478147514277159e-04 -5.5289583520283042e-05 0.0000000000000000e+00  -7.1431513950672102e-05 1.8872654728719965e-03 0.0000000000000000e+00  6.3270335950555985e-04 1.4553722724182849e-03 0.0000000000000000e+00  9.2586078427812088e-04 1.1764995655571459e-03 0.0000000000000000e+00  7.7662304611644166e-04 1.2949086022005919e-03 0.0000000000000000e+00  8.6999474640503209e-04 8.0445779591472569e-04 0.0000000000000000e+00  6.1373187205063229e-04 -2.9222045703145830e-04 0.0000000000000000e+00  2.6274281201817416e-04 -6.7742356962894256e-04 0.0000000000000000e+00  1.3518670508965258e-05 2.6803854477690943e-03 0.0000000000000000e+00  1.4134480868724592e-03 5.0185839419548820e-04 0.0000000000000000e+00  -1.3511365945965871e-02 2.9441015022629483e-04 0.0000000000000000e+00  -5.6216797761824539e-04 -7.8917711451642950e-04 0.0000000000000000e+00  1.3723815493751747e-06 6.4226625080842538e-06 0.0000000000000000e+00  5.0525019704419514e-05 -7.7357678071088829e-04 0.0000000000000000e+00  4.9084172899301038e-06 2.8157246482308259e-05 0.0000000000000000e+00  1.1239927322480124e-04 4.3233867683966119e-04 0.0000000000000000e+00  4.0163520315351739e-05 -5.1894288794321146e-04 0.0000000000000000e+00  -4.4902094784749390e-05 -5.0077751723625100e-04 0.0000000000000000e+00  5.9127547342782368e-04 -1.3216331209045802e-04 0.0000000000000000e+00  2.1125240413329496e-02 1.8614463858799977e+00 0.0000000000000000e+00  1.8164627926190446e-02 -1.1034722407193502e+00 0.0000000000000000e+00  -7.1195132787071335e-05 2.2662805846964442e+00 0.0000000000000000e+00  2.6946036553284133e-02 5.7386420773532831e-01 0.0000000000000000e+00  -5.8197515341790651e-04 -8.0192817504420812e-04 0.0000000000000000e+00  1.8708910207879126e-03 -2.4335703002796438e-05 0.0000000000000000e+00  -1.9105718254595167e-04 -5.0201345939332508e-04 0.0000000000000000e+00  -2.4736585125945176e-02 -1.6660691204995420e-01 0.0000000000000000e+00  -1.5015416356876696e-04 -6.9740264208930345e-04 0.0000000000000000e+00  7.9814907088262056e-06 -3.4512227719215776e-05 0.0000000000000000e+00  3.6348183830212422e-01 1.8751009611544445e+00 0.0000000000000000e+00  8.0900714484723343e-02 -1.2303501730912458e+00 0.0000000000000000e+00  -7.3330563320416611e-02 1.1675361763359478e+00 0.0000000000000000e+00  4.6751797954094670e-04 -8.0452168925015000e-04 0.0000000000000000e+00  -3.3413375668865132e-02 -1.2973489600803834e+00 0.0000000000000000e+00  -7.7657759680071672e-02 9.0658971546627509e-01 0.0000000000000000e+00  -2.1437742328524268e-03 -1.3859850815725751e-05 0.0000000000000000e+00  -1.2499748007751361e-03 -1.1763543579418878e+00 0.0000000000000000e+00  4.6648234872300444e-02 1.5980457741512311e+00 0.0000000000000000e+00  9.6648365647528184e-02 1.6039460835044013e+00 0.0000000000000000e+00  -2.5595943209856198e-01 2.5641489307369376e+00 0.0000000000000000e+00  2.9115516829346716e-03 1.0229602969702720e+00 0.0000000000000000e+00  3.1908362331316897e-01 2.6815078468783251e+00 0.0000000000000000e+00  6.3039792364142713e-02 -1.0034034565410213e+00 0.0000000000000000e+00  1.0877016635485101e-01 1.2870612042529221e+00 0.0000000000000000e+00  -3.6033404846746919e-01 1.1677108334151582e+00 0.0000000000000000e+00  1.3713941830595997e-02 1.5605196107448847e+00 0.0000000000000000e+00  8.2570430281062590e-03 -1.3334361553571235e+00 0.0000000000000000e+00  1.0436861254114499e-02 1.6232639538976235e+00 0.0000000000000000e+00  8.1647042691445848e-01 2.5395518511207666e+00 0.0000000000000000e+00  -8.5589712491356829e-02 2.6543757306803240e-01 0.0000000000000000e+00  -9.4479457231282829e-02 1.7077332655426782e+00 0.0000000000000000e+00  -8.8306776540984983e-02 -2.5467643251435006e-02 0.0000000000000000e+00  6.1485549888913776e-02 3.5668547120396910e-01 0.0000000000000000e+00  5.9298211517317472e-06 1.8656497684139125e-05 0.0000000000000000e+00  -6.7538329714132050e-01 2.3856269189238497e+00 0.0000000000000000e+00  -4.2276615414795299e-02 1.5669518028235982e+00 0.0000000000000000e+00  4.4515521942705581e-03 2.8916720491012604e-01 0.0000000000000000e+00  -8.3433797225429922e-03 -1.0239216060170973e+00 0.0000000000000000e+00  -5.8100925446940019e-03 6.5515050971940192e-01 0.0000000000000000e+00  -5.4690750437334124e-02 1.2881845693338447e+00 0.0000000000000000e+00  6.7778604034669414e-03 -1.3618057680589886e+00 0.0000000000000000e+00  -1.7838353253246111e-01 1.6998866765923299e+00 0.0000000000000000e+00  5.8117758602782385e-02 -1.5121855727140774e+00 0.0000000000000000e+00  -1.1862138006507062e-02 -3.6247940686430285e-04 0.0000000000000000e+00  -3.6733407974282012e-02 1.4370896909683719e+00 0.0000000000000000e+00  4.8728404907178870e-02 -1.3652513411074039e+00 0.0000000000000000e+00  1.0899904412691727e-01 1.4330571838731940e-01 0.0000000000000000e+00  1.3600014074846159e-01 -1.6375530151052082e+00 0.0000000000000000e+00  4.0026845493914817e-02 -4.3929100922123931e-01 0.0000000000000000e+00  -2.6262750435319736e-02 1.5232663805552240e+00 0.0000000000000000e+00  6.6437049199209161e-02 -1.3206668623510882e+00 0.0000000000000000e+00  5.9109571741738165e-01 -1.1780964647005303e+00 0.0000000000000000e+00  2.6000284393796275e-01 -1.2509928660285865e+00 0.0000000000000000e+00  1.6826703071569171e-01 1.4296227330625082e+00 0.0000000000000000e+00  4.6898883839798920e-02 -5.5343082753855877e-01 0.0000000000000000e+00  1.1133197655434489e-03 1.0731292404664911e-04 0.0000000000000000e+00  2.2406239652012121e-03 -9.6678017188519486e-04 0.0000000000000000e+00  -1.5722911052003230e-01 -1.1845671148794221e+00 0.0000000000000000e+00  -8.4915642513104600e-02 -1.6234494108497037e+00 0.0000000000000000e+00  2.6482132533269968e-04 -5.2369284745294644e-04 0.0000000000000000e+00  -8.7429056328036159e-02 -1.3066388370061934e+00 0.0000000000000000e+00  -2.2580481035336629e-02 7.4212168965062142e-01 0.0000000000000000e+00  -3.6862556979270926e-02 -2.8236514975421116e-02 0.0000000000000000e+00  -5.6467459176952675e-04 -3.1728025300678390e-04 0.0000000000000000e+00  -9.1124072240873029e-04 7.1742057055817609e-04 0.0000000000000000e+00  2.4625552843008058e-02 1.6609723762142492e+00 0.0000000000000000e+00  -1.7189301521811995e-03 1.6016184533595967e+00 0.0000000000000000e+00  6.4194788046192205e-02 -9.0784906273639854e-01 0.0000000000000000e+00  2.4138236388713218e-02 7.7377777847467433e-01 0.0000000000000000e+00  5.2461585211069292e-03 -1.0162568819079225e+00 0.0000000000000000e+00  8.5829569834208128e-03 -1.2614276347498921e+00 0.0000000000000000e+00  1.3079731467414814e-03 1.6127453952126940e-05 0.0000000000000000e+00  5.0943423566642876e-01 -1.3361280033691536e-01 0.0000000000000000e+00  4.4263982497478462e-02 -6.5786160356973500e-01 0.0000000000000000e+00  -4.4760407874476358e-04 -8.9715183644972633e-04 0.0000000000000000e+00  6.4677450334050092e-04 -6.7450413187810287e-04 0.0000000000000000e+00  5.1577779559559887e-04 -4.6576369801210694e-04 0.0000000000000000e+00  -7.9018654971901511e-04 -9.9851096011322762e-04 0.0000000000000000e+00  -1.4128814343443436e-03 -4.8442799145631820e-04 0.0000000000000000e+00  7.8622124392019911e-09 -2.9559670296861225e-05 0.0000000000000000e+00  3.6465388293004667e-05 -2.2394742139485846e-04 0.0000000000000000e+00  1.5015165430021872e-04 -9.8776864461326140e-04 0.0000000000000000e+00  1.6598413921861568e-01 -3.1966889486087302e-01 0.0000000000000000e+00  -3.7717675930321604e-02 -7.5886793192965130e-01 0.0000000000000000e+00  -1.7859789908935694e-01 1.4735891595825668e-01 0.0000000000000000e+00  7.4768724411675355e-02 -6.5295353447088200e-01 0.0000000000000000e+00  6.1229253473853669e-02 -1.5825836739968291e-01 0.0000000000000000e+00  1.8707730459142870e-03 2.4204009424914189e-04 0.0000000000000000e+00  -1.3254098307318511e+00 -6.6483517306671414e-01 0.0000000000000000e+00  -2.6429749203546959e-01 -4.1208853066153800e-01 0.0000000000000000e+00  3.7881209546724345e-02 -1.3095476249037434e+00 0.0000000000000000e+00  -1.3343306116942774e-01 -1.5176255173649047e+00 0.0000000000000000e+00  -7.3399728174669820e-01 -4.2937277037418686e-01 0.0000000000000000e+00  -5.8641826123093876e-02 2.7687650062770036e-01 0.0000000000000000e+00  -2.6100222936691553e-01 -8.0081935761191014e-01 0.0000000000000000e+00  4.0290943738648799e-01 -3.0833418591085165e-01 0.0000000000000000e+00  -8.0291429841633066e-02 -9.6881224271527167e-01 0.0000000000000000e+00  8.8294643281267182e-02 1.2801713129039598e+00 0.0000000000000000e+00  -6.1346392528002058e-02 -1.4990835356539733e+00 0.0000000000000000e+00  2.4604487857238476e-02 1.7534356146071406e+00 0.0000000000000000e+00  -6.6164780049837935e-01 -1.2060047319727334e+00 0.0000000000000000e+00  -4.5885043216920614e-02 -1.6040224661051474e+00 0.0000000000000000e+00  -1.6098809400323776e-02 1.4116066077437226e+00 0.0000000000000000e+00  2.7814076051319504e-02 -8.3241324254505822e-01 0.0000000000000000e+00  4.2674262823428372e-02 -1.2180690535588328e+00 0.0000000000000000e+00  1.0583436583740989e-01 -7.4573275167605813e-01 0.0000000000000000e+00  1.2813508073446560e+00 -2.2409653026732604e-02 0.0000000000000000e+00  6.2703976303095987e-02 1.4192474430460613e+00 0.0000000000000000e+00  1.1653622892550524e-02 -1.7745459398319305e+00 0.0000000000000000e+00  4.1656051708427053e-02 8.8891198939502714e-01 0.0000000000000000e+00  -2.1841721465922986e-02 2.9256380235585622e-01 0.0000000000000000e+00  -2.8744864943796560e-03 1.5466410064735061e+00 0.0000000000000000e+00  -8.0468211466469229e-03 4.1845493114399956e-01 0.0000000000000000e+00  -1.0711024728732995e-02 8.9459682603912627e-01 0.0000000000000000e+00  3.0881623212722714e-01 8.0883103165623471e-01 0.0000000000000000e+00  -2.4507546122778082e-01 -1.3402215483293722e-01 0.0000000000000000e+00  2.0083298077428327e-01 -3.5201197551339125e-01 0.0000000000000000e+00  -1.0294086946195479e-02 9.3997053333091574e-01 0.0000000000000000e+00  -4.5375865984672026e-02 2.6948834028790375e-01 0.0000000000000000e+00  2.2850029957393811e-02 -1.3067102659687089e+00 0.0000000000000000e+00  1.8696164860404638e-02 5.1959908645218744e-01 0.0000000000000000e+00  -1.6372299697812875e-01 3.1746347741209668e-01 0.0000000000000000e+00  -5.9819528840627592e-02 1.3617106821576448e+00 0.0000000000000000e+00  1.7496033026748792e-02 -1.4998876938948230e-01 0.0000000000000000e+00  -2.9420804536319078e-02 -3.0113606456524367e-01 0.0000000000000000e+00  2.8114722361644837e-02 1.0551653482217116e+00 0.0000000000000000e+00  -4.5657994472300190e-01 -2.1129491388450575e-01 0.0000000000000000e+00  8.3390895384279551e-01 -5.4058623868988842e-01 0.0000000000000000e+00  1.1923644315889824e-02 -1.5556918448449391e+00 0.0000000000000000e+00  2.1202187537816899e-02 -1.2498613265219403e+00 0.0000000000000000e+00  -1.8783052219426701e-02 -1.7435557438810700e+00 0.0000000000000000e+00  -3.6047958882632319e-01 -2.6539196848933921e-01 0.0000000000000000e+00  -6.6185455092508061e-02 9.8068188925419375e-01 0.0000000000000000e+00  8.2502005386332589e-01 1.4923096915997214e+00 0.0000000000000000e+00  2.3798426549646640e-01 4.4050796873963816e-01 0.0000000000000000e+00  -7.7910149212195648e-02 -4.6891101806778046e-01 0.0000000000000000e+00  4.8673411793915766e-02 -4.4666599466997420e-01 0.0000000000000000e+00  -7.2363594882873000e-02 -1.5875825868170144e+00 0.0000000000000000e+00  9.3826014663792964e-02 1.5809425718291583e+00 0.0000000000000000e+00  4.9566509583735117e-02 1.7034414540871803e+00 0.0000000000000000e+00  -6.1323528546724099e-02 1.4601286072703092e+00 0.0000000000000000e+00  8.2028921751484532e-02 -1.4529138871143719e+00 0.0000000000000000e+00  7.0514913002962271e-03 7.1450417601378635e-01 0.0000000000000000e+00  5.5133152148990575e-02 -1.5467971449553415e+00 0.0000000000000000e+00  -5.0987381356354541e-02 1.3482543013707833e+00 0.0000000000000000e+00  -5.5607089548070941e-02 1.6407927338866102e+00 0.0000000000000000e+00  4.0593571745943269e-01 1.7750867234097480e+00 0.0000000000000000e+00  3.9048383431728687e-02 -6.0110020618036819e-01 0.0000000000000000e+00  -1.3151793987168450e-01 1.5824479796781519e+00 0.0000000000000000e+00  -1.0395951334479154e+00 1.4558711458054354e+00 0.0000000000000000e+00  -1.4027018522581289e-02 -1.3756492042910189e+00 0.0000000000000000e+00  3.6400244196167462e-02 -3.4332847403402195e-01 0.0000000000000000e+00  -1.2496850657542344e-01 2.1953314034616822e+00 0.0000000000000000e+00  4.4328617621209598e-02 -2.5860268091638222e-01 0.0000000000000000e+00  2.7769969894362467e-04 -4.6890049205925306e-04 0.0000000000000000e+00  -6.5223431392587419e-02 -6.0510046108830884e-01 0.0000000000000000e+00  5.3880198166911619e-01 -9.1979310902252620e-01 0.0000000000000000e+00  -1.9532878855426171e-02 -1.6128442383876063e+00 0.0000000000000000e+00  -3.9115455463709328e-02 -1.1209886107893754e+00 0.0000000000000000e+00  1.1260076414480333e-01 1.7248753096219842e+00 0.0000000000000000e+00  1.0147813395467036e-02 1.7333792667589326e-01 0.0000000000000000e+00  -1.6072628706737593e-04 -8.1600387184067142e-04 0.0000000000000000e+00  2.4505294715867144e-02 -1.2309034481968619e+00 0.0000000000000000e+00  1.3865701135993586e-01 -1.3335911977393193e+00 0.0000000000000000e+00  3.9674529945473998e-02 2.8810997302463714e-01 0.0000000000000000e+00  -3.8684241227261961e-04 -8.8014267377902399e-04 0.0000000000000000e+00  -1.1383366095100583e-01 1.6068520183854051e-01 0.0000000000000000e+00  -8.9875263455758136e-02 1.6123219662347741e+00 0.0000000000000000e+00  9.6073769286383476e-02 -8.3732618197421160e-01 0.0000000000000000e+00  6.0917349555373781e-03 7.6451581816601166e-01 0.0000000000000000e+00  -3.0490159949069060e-04 6.0945669251504279e-04 0.0000000000000000e+00  -8.3286611408302347e-01 1.7790486411866293e+00 0.0000000000000000e+00  1.2051813147866450e-01 1.0732837895910470e+00 0.0000000000000000e+00  7.0436075710714488e-02 8.1582330182693408e-01 0.0000000000000000e+00  -1.2552593991194461e-02 -3.5749707683017441e-03 0.0000000000000000e+00  -1.4083822411141022e-02 -1.3593590584718223e+00 0.0000000000000000e+00  1.3814237890014663e-02 2.3219409458684601e-01 0.0000000000000000e+00  -4.7625750777501968e-01 2.4455221284727067e+00 0.0000000000000000e+00  -1.3817816512904424e-01 1.1778045111107558e+00 0.0000000000000000e+00  -8.5021162726807764e-02 -1.1937012601811143e+00 0.0000000000000000e+00  2.4233537615854125e-01 -9.3847580345387219e-02 0.0000000000000000e+00  -1.0641177833783771e-01 -6.3929853080334653e-01 0.0000000000000000e+00  -2.4087389350376333e-02 9.0302350419063493e-01 0.0000000000000000e+00  6.9556906012901518e-03 -1.2185265103166376e+00 0.0000000000000000e+00  6.8668435117541667e-04 -6.1004141675901063e-04 0.0000000000000000e+00  -4.1822269201001461e-01 1.7068246583183433e+00 0.0000000000000000e+00  3.8338422152538898e-01 1.9961431349958363e+00 0.0000000000000000e+00  7.6766741840351470e-03 -1.1416693545998187e+00 0.0000000000000000e+00  -2.2728327832992770e-01 -6.1183131547921532e-01 0.0000000000000000e+00  2.7409248007417768e-02 3.3869082891646518e-01 0.0000000000000000e+00  -1.9418063173422609e-02 -1.6314805292724528e+00 0.0000000000000000e+00  -1.8609896917285787e-05 -3.6618010818846958e-05 0.0000000000000000e+00  1.1444853310444043e-02 1.5487080861874880e+00 0.0000000000000000e+00  3.1103676779962924e-02 1.0735693378141806e+00 0.0000000000000000e+00  6.8237515429717371e-02 1.6374980973285540e+00 0.0000000000000000e+00  4.4942438500125573e-04 7.4685849932292229e-04 0.0000000000000000e+00  -1.9589026162897951e-02 -1.0386999140307545e+00 0.0000000000000000e+00  -1.6614670746463455e-02 9.1584055940723241e-01 0.0000000000000000e+00  6.1641490871167903e-01 2.6513628012349653e+00 0.0000000000000000e+00  -4.9350886204163258e-03 -1.4233406285385106e+00 0.0000000000000000e+00  -2.2029518285219914e-04 8.7142359234078726e-01 0.0000000000000000e+00  1.8229253572938014e-02 1.6853504432125693e-01 0.0000000000000000e+00  -4.8229627107179374e-02 1.3634701557311129e+00 0.0000000000000000e+00  -2.0264937810708719e-02 -8.5384837457597218e-01 0.0000000000000000e+00  2.0442221571674457e-01 -3.7621954651922396e-01 0.0000000000000000e+00  7.6500507081035687e-02 1.6879925007806225e+00 0.0000000000000000e+00  4.6015421229758983e-02 1.3398061494681160e-01 0.0000000000000000e+00  -3.0033879795126572e-01 -1.0857017252734886e+00 0.0000000000000000e+00  1.0726649501505151e-01 2.2586625338752366e+00 0.0000000000000000e+00  8.5101180464614748e-02 -8.3495948915853768e-01 0.0000000000000000e+00  -3.0094055182328222e-01 -7.0639936103576728e-01 0.0000000000000000e+00  6.1473051656943549e-02 -1.7348239270333490e+00 0.0000000000000000e+00  3.5824006943567521e-02 -1.1437309835898155e+00 0.0000000000000000e+00  2.7592635743446015e-01 1.2826361803552124e+00 0.0000000000000000e+00  -2.5055379746959653e-04 4.72627908192798