<?xml version="1.0"?>
<VTKFile type="UnstructuredGrid"  version="0.1"  >
<UnstructuredGrid>
<Piece  NumberOfPoints="5089" NumberOfCells="9865">
<Points>
<DataArray  type="Float64"  NumberOfComponents="3"  format="ascii">0 1.5 0  0 0 0  0.1029058182573948 0 0  0.1029058182573948 0.02393156642875577 0  0.1251489251828899 0.06631226582407952 0  0.1645395112957465 0.09350162426854149 0  0.2120536680255323 0.0992708874098054 0  0.2568064746731156 0.08229838658936564 0  0.288545602565321 0.04647231720437685 0  0.3 0 0  0.51 0 0  0.5220577136594005 0.04499999999999999 0  0.555 0.07794228634059948 0  0.6 0.09 0  0.645 0.07794228634059946 0  0.6779422863405995 0.04499999999999999 0  0.6899999999999999 0 0  0.8924037639192813 0 0  0.8924037639192813 0.02287028598995353 0  0.9110081306187559 0.06465637775217206 0  0.9450000000000001 0.09526279441628825 0  0.9885018690405581 0.1093974084905101 0  1.033991869381244 0.1046162167924669 0  1.073604366699474 0.08174593080251337 0  1.100490000340686 0.04474103073833802 0  1.11 0 0  1.502905818257395 0 0  1.502905818257395 0.02393156642875577 0  1.52514892518289 0.06631226582407952 0  1.564539511295747 0.09350162426854149 0  1.612053668025532 0.0992708874098054 0  1.656806474673116 0.08229838658936564 0  1.688545602565321 0.04647231720437685 0  1.7 0 0  1.82324056211084 0 0  1.82324056211084 0.02253860454731437 0  1.847611141284377 0.06045996594834066 0  1.888614812938137 0.07918571535047463 0  1.933233201040151 0.07277055962836147 0  1.967300282626494 0.0432512653964478 0  1.98 0 0  2.202905818257395 0 0  2.202905818257395 0.02393156642875577 0  2.22514892518289 0.06631226582407952 0  2.264539511295746 0.09350162426854149 0  2.312053668025532 0.0992708874098054 0  2.356806474673115 0.08229838658936564 0  2.388545602565321 0.04647231720437685 0  2.4 0 0  2.51 0 0  2.522057713659401 0.04499999999999999 0  2.555 0.07794228634059948 0  2.6 0.09 0  2.645 0.07794228634059946 0  2.677942286340599 0.04499999999999999 0  2.69 0 0  3 0 0  3 1.5 0  0 0.75 0  1.5 1.5 0  0 0.375 0  0 0.1875 0  0.75 1.5 0  2.25 1.5 0  3 0.75 0  1.803364316093307 0.8194216192460635 0  0.7085714285714286 0.7914285714285714 0  2.396697907928333 0.698796196655595 0  1.26039230397729 0.6323879781298929 0  1.125 1.5 0  3 1.125 0  0.375 1.5 0  1.418284719659703 1.05567510076647 0  2.625 1.5 0  0 1.125 0  2.4375 1.120298797465005 0  0.4140309460188812 0.4815551607069073 0  0.9375 1.133540466589862 0  1.875 1.5 0  0.4143011358073044 1.085698864192695 0  2.042557228405723 0.4764057674039468 0  3 0.375 0  1.615235786026768 0.4839120951620492 0  0.9172436665953028 0.4786128535408891 0  2.136144598898015 0.9367443054342734 0  2.712089662802327 0.5625 0  1.752709466448716 1.168812671476193 0  2.696461986964791 0.9012929362807449 0  1.307422665144653 0.3094324321200764 0  2.0625 1.24476578117044 0  2.446405755792607 0.3860402512509704 0  0.3158723471199726 0.7836709721106835 0  1.018921994797561 0.831404696897531 0  1.521099871135537 0.7571953762650785 0  2.718190509848388 1.189592528269884 0  0.665307193508031 1.225469494285917 0  1.199897701782483 1.230481185797768 0  0.2233959957266646 1.276604004273335 0  0.6649397520368477 0.3607836886074089 0  0 0.5625 0  2.685543358160364 0.3192521589045413 0  1.775621962986754 0.2975552026784072 0  2.025654700292002 0.7195245521041802 0  0.1961827192748887 0.9897295638426992 0  1.25729921569077 0.8746334216075233 0  1.534142212444284 1.264044413891354 0  1.624439414641745 0.9597398592303362 0  2.117668421489377 0.2641528949307972 0  1.945094170902585 1.053880768096555 0  3 0.1875 0  0.6251639682912251 1.002291403912492 0  0.719601375969486 0.5727782913443102 0  0.2313942916225519 0.3335511938861402 0  0.4687668770508729 0.274248243200137 0  0.5143238740412669 0.6811446824633056 0  1.829350286632844 0.5059917594077202 0  1.082379929992235 0.3249418149194327 0  2.540679850598416 1.305492850437689 0  2.282283153018704 1.279796495628565 0  2.355666841619378 0.9154942188580675 0  0.2114722061938988 0.5448236655965607 0  3 1.3125 0  2.8125 1.5 0  2.263750685400308 0.5173381079832993 0  0.4343085727049624 1.296611441170993 0  1.6875 1.5 0  1.016037518489582 1.324553740130353 0  0.846292314151325 0.9469220663180872 0  1.122827752751251 1.035495517001457 0  1.3125 1.5 0  1.306452909128697 0 0  0.8906638629565067 0.6773217378320744 0  1.517175933126145 0.2981487507037606 0  0.7996957920902151 0.2224603600775558 0  1.446370464174038 0.5785990786868803 0  1.689965192988266 0.6625083927402473 0  0.4864273298880485 0.870473805626289 0  3 0.9375 0  2.831315819563651 1.036097903808422 0  1.106384347284952 0.5163011422226527 0  0.5625 1.5 0  0.9375 1.5 0  0.1875 1.5 0  2.0625 1.5 0  3 0.5625 0  0 0.9375 0  0 1.3125 0  2.4375 1.5 0  2.196044825237544 1.113880351688974 0  2.210431846521007 0.695834380790271 0  0.8262236946704767 1.326155809103077 0  2.523003751809735 0.8349453583788917 0  1.882533682486712 1.30904671408086 0  2.845 0 0  2.813607095438526 0.1837681344374856 0  2.298597604800397 0.280431891689246 0  1.972062138207083 0.8834951655964545 0  1.943392101370151 0.2475417334111557 0  2.828663592588797 0.4267055109367558 0  2.803791026183859 0.7364868569598708 0  2.523250359922468 0.5585816735541729 0  2.602935827188279 1.053310414780935 0  1.692458045540587 1.328962813001376 0  1.232271555781778 0.154950218767993 0  1.36985844680238 1.21899526865025 0  1.785321775315372 1.004919979330962 0  2.534633602602767 0.2439507161942105 0  0.7651985499724481 1.092302611968735 0  2.637828969450683 0.71279922663893 0  1.100469689258933 0.6843495375675052 0  1.315800235513153 0.4755545830105288 0  1.405546076805209 0.1782543944119986 0  2.826282129872177 1.326282129872177 0  0.575884497984488 0.4967904868667201 0  0.1516233666565383 0.826056857120972 0  0.3483704262380678 0.6272257636119053 0  1.568331672486121 1.108640197801574 0  1.475101554186818 0.9082985267599337 0  1.868470483419324 0.6670273102604994 0  0.3467545185571825 0.9433646607171683 0  2.15625 1.373787484318285 0  1.41742615593433 1.367603819494743 0  2.854904919456998 0.8828609574219635 0  0.9476741986655126 0.255395459587152 0  1.267450600339273 1.091056105706913 0  0.114311143675241 0.65625 0  0.65625 1.37859278398136 0  2.170651243108527 0.4023187025489676 0  1.21875 1.380886352874642 0  0.3798992233573569 0.1593768045411093 0  0.9831420651531181 0.9956358347774316 0  1.456186685150796 0.4319140716985383 0  2.586721317152155 0.4269308613840649 0  2.863979293145301 1.178604739864835 0  1.658646098314701 0.8045749301224775 0  1.383553643956373 0.7098158224076794 0  0.154006438477797 1.138458423126247 0  2.856044831401163 0.5977865618779903 0  0.553876003596687 1.130313370813194 0  2.680231675041409 1.360526450748891 0  2.486056782242186 0.9722817331473952 0  1.891212003911469 0.3789027676568836 0  0.8138227412155181 0.37102502168449 0  1.064674644221452 1.192903489156071 0  0.6045358160041144 0.2320910326486189 0  1.194008126159845 0.4081242368041457 0  2.138311355076408 0.5770795769918613 0  0.134142636330111 0.2313017261983794 0  0.8460209454012837 0.8084258449188535 0  0.1293517554287885 0.4305045409359897 0  0.3205820557512212 1.373790064297892 0  0.2928933613730453 1.155196229839076 0  2.404969940572298 1.358123451328196 0  0.9933877375830629 0.5899302104012978 0  2.090287791367255 0.1211621925433303 0  2.904889173308855 0.28125 0  0.1246766077328953 1.375323392267105 0  2.302041695038792 0.7931069109810627 0  2.389228836127323 0.5648368411465005 0  1.886839219693261 1.174850198523801 0  1.96875 1.5 0  2.005259577028834 1.368575570359887 0  2.58746882374347 1.183267841227943 0  1.646515580921743 0.3486369169127919 0  1.980147904783248 0.5942137934419368 0  2.07740167257538 1.055304717195479 0  1.57300338334685 0.6065157750282059 0  1.59375 1.5 0  1.679678032322464 0.2100937046526968 0  2.252673654577562 0.9960348417811178 0  2.17832845930892 0.8178435559778986 0  1.78125 1.5 0  2.021596890434516 0.349571947542988 0  1.79926971381977 0.1752587163176004 0  0.503878860142697 0.3943984894172995 0  1.146622573165596 0.8060813049917908 0  3 1.40625 0  2.649807995179342 0.2020005420916801 0  0.3438742656237004 0.2790576170649142 0  1.546875 1.386334759531577 0  3 0.09375 0  1.320989371181643 0.9800954309611291 0  1.270074893254929 0.7536540780084714 0  2.70770359261854 0.4387759707667409 0  0.5606072232931772 1.296106034499297 0  0.7858104720553775 1.211812834033452 0  2.317237622700128 1.09958886094401 0  2.518665098961854 0.68166123334458 0  1.747777558052355 0.4158756118164814 0  1.683029275145126 1.069756268641544 0  0.46875 1.5 0  2.407758410849746 0.2048845882413086 0  2.396684507181482 1.235853070423643 0  1.919569286509587 0.7755948020085885 0  2.290752654053557 0.4002939182457882 0  0.2367853577638227 0.6856443876677092 0  1.644821718344275 1.219632237269969 0  0 1.03125 0  0.5821665354391095 0.7878606619613046 0  0.6422016866915001 0.674771619551397 0  0.2917070890414653 0.4458139506278615 0  0.7912018819596407 0 0  0.1045102716700244 1.249819735557644 0  1.151091219660612 0.9224858968529193 0  2.719174284445647 1.071883664029489 0  0.7216906855953001 0.918545393630683 0  0.2528020696803429 0.8787006417214202 0  1.726437981314609 0.9055659975386789 0  1.466273966174817 1.158744006060248 0  0.500278661176367 0.9948136517426003 0  1.114706325735654 0.2023659607018325 0  1.193213601931895 0.2926984867334158 0  0.9725372994821596 0.3724679154862157 0  2.214714190066689 0.1991474088029779 0  2.411776451427861 0.8179674328277735 0  1.997105232295531 1.153439169094244 0  0.497834479014996 1.390464488336983 0  0.4532232073331143 0.5868543641678674 0  0.4094710929462204 0.7215160819073434 0  0.2730945637736263 0.1927345247561336 0  2.091452909128697 0 0  1.88727127931541 0.9574017932976476 0  0.7331675361580886 0.4562359341911597 0  0.808798696301996 0.1107204599928528 0  2.794056136375906 0.2935548935723623 0  2.172174128810919 1.263645408055929 0  2.266351953173893 1.389929090293708 0  0.9205129738298803 1.252177379624563 0  2.58760749
[...]
<PointData  Vectors="f_60"> 
<DataArray  type="Float64"  Name="f_60"  NumberOfComponents="3" format="ascii">1.1095152280364109e-04 -6.8082927668773878e-04 0.0000000000000000e+00  3.8085326872091055e-04 9.2216379747958053e-07 0.0000000000000000e+00  3.6353367980553769e-04 6.1615241536128532e-04 0.0000000000000000e+00  3.4274459640416902e-04 7.1728608407996633e-04 0.0000000000000000e+00  -2.1156940391346091e-04 1.8859242253845335e-04 0.0000000000000000e+00  5.0902854932169141e-05 7.8989067236437003e-04 0.0000000000000000e+00  3.3812043999006985e-04 6.7464301092330615e-04 0.0000000000000000e+00  -7.4864664603161709e-05 4.1408786128857724e-04 0.0000000000000000e+00  4.7667079320342498e-04 8.6042414740637935e-04 0.0000000000000000e+00  5.9709769103060946e-04 3.3768908275534843e-04 0.0000000000000000e+00  1.7670758755003075e-04 3.6123631201599119e-04 0.0000000000000000e+00  4.7919892573591757e-04 7.7023469156341077e-04 0.0000000000000000e+00  3.8528973159659581e-05 6.6370848949059795e-04 0.0000000000000000e+00  5.0157711166385012e-05 3.0615663496341304e-04 0.0000000000000000e+00  5.6662050644301924e-05 6.2142503567221637e-04 0.0000000000000000e+00  -3.6484107932455953e-04 7.2531727311005406e-04 0.0000000000000000e+00  -1.9125377494481975e-04 4.5850242836324191e-04 0.0000000000000000e+00  -7.2211367457157647e-04 2.6039022091846120e-04 0.0000000000000000e+00  -2.5032700786744780e-04 1.1205702099165743e-03 0.0000000000000000e+00  -2.2861027162781887e-04 8.8915245156063615e-04 0.0000000000000000e+00  -1.3534827045833195e-04 3.5406498217410823e-04 0.0000000000000000e+00  -8.9535043442958258e-05 7.3254574594494321e-04 0.0000000000000000e+00  2.4838487787937459e-04 5.7842379479373755e-04 0.0000000000000000e+00  4.0557524050783856e-04 3.5490738028302567e-04 0.0000000000000000e+00  -3.2920736707755318e-04 7.5038872234358149e-04 0.0000000000000000e+00  -5.8390233754893712e-04 8.5991593117505801e-04 0.0000000000000000e+00  -5.0482055113659069e-04 2.9611387509153881e-04 0.0000000000000000e+00  -4.6066148097190349e-04 8.2494648560653763e-04 0.0000000000000000e+00  -1.8145271333874858e-04 5.8504572560006936e-04 0.0000000000000000e+00  3.8515243262340183e-05 6.6465073234384423e-04 0.0000000000000000e+00  -2.4793237563405248e-04 9.1053747298770445e-04 0.0000000000000000e+00  6.5878112722234149e-04 3.7932030651882594e-04 0.0000000000000000e+00  -6.3869700846587766e-04 9.6813147750056719e-04 0.0000000000000000e+00  -3.8326793296899157e-04 9.1353115491402516e-04 0.0000000000000000e+00  -2.7597123424691458e-04 1.1116079313440467e-04 0.0000000000000000e+00  -1.3068977576961567e-04 3.5548231872813043e-04 0.0000000000000000e+00  9.7298786104607518e-05 6.1981897590528752e-04 0.0000000000000000e+00  -2.2949331388550016e-04 9.1631152928813584e-04 0.0000000000000000e+00  1.0128878684459843e-04 6.6938981741862644e-04 0.0000000000000000e+00  2.6268714204021618e-04 5.4982787340175762e-04 0.0000000000000000e+00  -2.3324495664425678e-04 8.7555784552666453e-04 0.0000000000000000e+00  4.6468316420103306e-04 7.1005780340017760e-04 0.0000000000000000e+00  4.5367124096905688e-04 8.5176477079039199e-04 0.0000000000000000e+00  3.0698232409438422e-04 6.2053688785873736e-04 0.0000000000000000e+00  -9.2274194922575942e-05 5.0827724972691331e-04 0.0000000000000000e+00  9.0950713837239673e-05 6.6005579582239181e-04 0.0000000000000000e+00  1.5009395082188217e-05 1.2541823216350042e-04 0.0000000000000000e+00  -3.7185559451956817e-05 1.4870587031651171e-03 0.0000000000000000e+00  5.1177065745784331e-04 1.3350516285952744e-03 0.0000000000000000e+00  8.1601198361511737e-04 1.4739872290429859e-03 0.0000000000000000e+00  8.8603706555265369e-04 1.4461874013153935e-03 0.0000000000000000e+00  6.0804350842244147e-04 3.7504600068928747e-04 0.0000000000000000e+00  4.8085382701599491e-04 -1.4938178370393519e-04 0.0000000000000000e+00  1.4703418402045376e-04 -5.0565026998400950e-04 0.0000000000000000e+00  -1.1064193549875203e-04 2.6805088290111044e-03 0.0000000000000000e+00  1.7958301110224761e-03 9.8057036014156202e-04 0.0000000000000000e+00  -9.1055822465546752e-03 1.2891442696789767e-03 0.0000000000000000e+00  -1.5140802493701698e-03 6.5903355831675096e-04 0.0000000000000000e+00  -1.0476741220488525e-06 8.0523577799132095e-06 0.0000000000000000e+00  -9.4226735668286172e-06 -7.1849909522785267e-04 0.0000000000000000e+00  -1.9165636248636159e-06 3.9803224925093116e-05 0.0000000000000000e+00  9.3386433044858114e-05 3.2423794679031819e-04 0.0000000000000000e+00  3.7998169419043076e-06 -4.8646891588818766e-04 0.0000000000000000e+00  -3.9617240170215886e-05 -4.2818032314304201e-04 0.0000000000000000e+00  6.3955622299075108e-04 -7.0704088482380378e-05 0.0000000000000000e+00  1.5303651605697592e-02 1.4460595250543455e+00 0.0000000000000000e+00  1.2819602261690375e-02 -8.6046011086345409e-01 0.0000000000000000e+00  -9.6767954166972897e-03 1.7650475882064411e+00 0.0000000000000000e+00  2.1134272107206042e-02 4.3881020623275052e-01 0.0000000000000000e+00  -5.2776469961060199e-04 -6.9346646438709627e-04 0.0000000000000000e+00  1.6640954727900903e-03 -1.0134619619873688e-04 0.0000000000000000e+00  -5.9717838750009135e-05 -4.5033653811429170e-04 0.0000000000000000e+00  -1.9451151069392016e-02 -1.3621041884250526e-01 0.0000000000000000e+00  -5.2093967685608636e-04 -6.5656659068215144e-04 0.0000000000000000e+00  3.9318516643491982e-06 -1.4890791194217098e-05 0.0000000000000000e+00  2.7819887179723846e-01 1.4015257978087114e+00 0.0000000000000000e+00  6.0431862151321597e-02 -9.7119221035896941e-01 0.0000000000000000e+00  -5.4017041586272622e-02 9.1931946526189612e-01 0.0000000000000000e+00  4.6365432284731759e-04 -6.9454960401526817e-04 0.0000000000000000e+00  -2.7406867197573691e-02 -1.0020439414938465e+00 0.0000000000000000e+00  -6.3262541667950353e-02 6.8764786285009316e-01 0.0000000000000000e+00  -1.2541460498957299e-03 -9.5791753856450291e-05 0.0000000000000000e+00  -2.0496406214867307e-03 -9.1407446650163038e-01 0.0000000000000000e+00  3.4877101482888528e-02 1.2375556826200911e+00 0.0000000000000000e+00  7.3301539845590916e-02 1.2311996552197111e+00 0.0000000000000000e+00  -2.1355824762235825e-01 2.0403399065091121e+00 0.0000000000000000e+00  3.5143024236036443e-03 7.9413368506784066e-01 0.0000000000000000e+00  2.2953758193539561e-01 2.0950698975224511e+00 0.0000000000000000e+00  4.8081420311547128e-02 -7.9700503689886681e-01 0.0000000000000000e+00  8.5919129376189007e-02 1.0168596868970428e+00 0.0000000000000000e+00  -2.7914421942655809e-01 1.0011343723500681e+00 0.0000000000000000e+00  1.2389370486272153e-02 1.2092954459413825e+00 0.0000000000000000e+00  4.7081553635782902e-03 -1.0364889150054042e+00 0.0000000000000000e+00  8.4317501665959887e-03 1.2603671427148748e+00 0.0000000000000000e+00  6.1827866111383678e-01 1.9493411619913876e+00 0.0000000000000000e+00  -6.5065725921025233e-02 2.2820891255800396e-01 0.0000000000000000e+00  -6.9534169071099952e-02 1.3268857791129409e+00 0.0000000000000000e+00  -6.6310813512704653e-02 -4.1500031903111773e-02 0.0000000000000000e+00  4.7521480823103340e-02 2.6115154171296806e-01 0.0000000000000000e+00  3.8137342253688917e-06 2.5824668701796659e-05 0.0000000000000000e+00  -5.4332522605807265e-01 1.8844515679274181e+00 0.0000000000000000e+00  -3.4814293650318365e-02 1.2150927328588179e+00 0.0000000000000000e+00  2.0503494558231756e-03 2.2633391592902555e-01 0.0000000000000000e+00  -6.7884115061742469e-03 -7.9923904660591572e-01 0.0000000000000000e+00  -3.6020981258755662e-03 5.0997296357085531e-01 0.0000000000000000e+00  -3.9698520945281257e-02 1.0096570971416361e+00 0.0000000000000000e+00  4.9549443297392951e-03 -1.0564549818234521e+00 0.0000000000000000e+00  -1.4176531546160226e-01 1.3443209293983323e+00 0.0000000000000000e+00  4.6519186552337347e-02 -1.1718637696893652e+00 0.0000000000000000e+00  -9.2663601269934569e-03 -7.6683348869863998e-05 0.0000000000000000e+00  -2.5558521941633938e-02 1.1200510337866556e+00 0.0000000000000000e+00  3.6517715410655065e-02 -1.0682831293120132e+00 0.0000000000000000e+00  8.3792595097920197e-02 1.3700641281149539e-01 0.0000000000000000e+00  1.0120758035532337e-01 -1.2654326945235634e+00 0.0000000000000000e+00  3.0086068213995586e-02 -3.3297115396207144e-01 0.0000000000000000e+00  -2.2425402089331050e-02 1.1913434763723125e+00 0.0000000000000000e+00  5.1199419794272290e-02 -1.0140159892016842e+00 0.0000000000000000e+00  4.6663362062662017e-01 -9.5963763513845646e-01 0.0000000000000000e+00  2.0377216560463932e-01 -9.2569268969437202e-01 0.0000000000000000e+00  1.2531265084699764e-01 1.1413702947927484e+00 0.0000000000000000e+00  3.5962496633021417e-02 -4.1925172774645525e-01 0.0000000000000000e+00  1.5572458636914383e-03 1.4285956967410372e-04 0.0000000000000000e+00  1.2010331390871942e-03 -7.9961030150243182e-04 0.0000000000000000e+00  -1.1763355613182713e-01 -9.3339690943733322e-01 0.0000000000000000e+00  -6.6958819406665399e-02 -1.2523608558881361e+00 0.0000000000000000e+00  2.1694557573397481e-04 -4.5793305817597163e-04 0.0000000000000000e+00  -6.7330490276626673e-02 -9.9390071973488880e-01 0.0000000000000000e+00  -1.6544669851660917e-02 5.7158501767335312e-01 0.0000000000000000e+00  -2.8599572313624356e-02 -3.1980326208159646e-02 0.0000000000000000e+00  -5.2095765705809528e-04 -3.1219553528805648e-04 0.0000000000000000e+00  -8.5580955162831835e-04 6.5091645738529877e-04 0.0000000000000000e+00  2.0089999971707927e-02 1.2911552569235971e+00 0.0000000000000000e+00  -6.2945100896233969e-03 1.2461999281383307e+00 0.0000000000000000e+00  4.8354770247362178e-02 -6.9853187680705786e-01 0.0000000000000000e+00  1.7158864159311546e-02 6.0707812811782591e-01 0.0000000000000000e+00  3.2907724429161785e-03 -7.8829520300378253e-01 0.0000000000000000e+00  5.1219325477501196e-03 -9.8037843757014143e-01 0.0000000000000000e+00  1.1159908335805612e-03 3.1350672242333326e-06 0.0000000000000000e+00  4.1632468028939035e-01 -1.7301023542509533e-01 0.0000000000000000e+00  3.4093342983239815e-02 -5.0128272748014979e-01 0.0000000000000000e+00  -4.8035470173504258e-04 -8.1595363259688580e-04 0.0000000000000000e+00  5.8250445600272263e-04 -6.1819466336806704e-04 0.0000000000000000e+00  4.2509049603473649e-04 -3.9467827745066745e-04 0.0000000000000000e+00  -6.9000061500556250e-04 -8.7703770156699547e-04 0.0000000000000000e+00  -6.9527691201670997e-04 -3.7899883655648063e-04 0.0000000000000000e+00  -3.5850885570682146e-06 -2.2694248057351139e-05 0.0000000000000000e+00  2.3318509162567935e-05 -1.4404183234202988e-04 0.0000000000000000e+00  3.5303166011660592e-04 -8.8928918090761682e-04 0.0000000000000000e+00  1.3278881601691528e-01 -2.8332520470242156e-01 0.0000000000000000e+00  -2.3369329831843907e-02 -5.8300817723004716e-01 0.0000000000000000e+00  -1.3566926662758239e-01 8.0519120467394012e-02 0.0000000000000000e+00  7.2246339008720822e-02 -5.1598252223839736e-01 0.0000000000000000e+00  4.8205347632452954e-02 -1.3014786995629468e-01 0.0000000000000000e+00  1.7777031101560150e-03 2.7987338405392243e-04 0.0000000000000000e+00  -1.0362904882823853e+00 -4.8118154984435946e-01 0.0000000000000000e+00  -2.0809226782766579e-01 -3.8030421855997038e-01 0.0000000000000000e+00  3.1052706481455156e-02 -1.0103685147130357e+00 0.0000000000000000e+00  -1.0401425473060461e-01 -1.1810726042911055e+00 0.0000000000000000e+00  -5.4365124424411682e-01 -3.1100650874733710e-01 0.0000000000000000e+00  -2.7049537882297824e-02 2.3028801151553738e-01 0.0000000000000000e+00  -1.8824215593064172e-01 -5.9685560261553638e-01 0.0000000000000000e+00  3.2360473299451670e-01 -1.4700854991876217e-01 0.0000000000000000e+00  -6.3054278648085577e-02 -7.6083335772532923e-01 0.0000000000000000e+00  5.9535330786889468e-02 9.7530372929457099e-01 0.0000000000000000e+00  -4.9831823856372671e-02 -1.1705030546250805e+00 0.0000000000000000e+00  1.9487171899474378e-02 1.3628714617044091e+00 0.0000000000000000e+00  -5.1180544514112081e-01 -9.4494257843148355e-01 0.0000000000000000e+00  -3.7935878158276148e-02 -1.2510830131918158e+00 0.0000000000000000e+00  -1.8519142689050069e-02 1.0867928869074306e+00 0.0000000000000000e+00  2.0467542988213357e-02 -6.4154468941017750e-01 0.0000000000000000e+00  3.2002185063259810e-02 -9.5546309395140394e-01 0.0000000000000000e+00  8.2026251428620814e-02 -5.7057706820463872e-01 0.0000000000000000e+00  1.0050865609355202e+00 -2.5069626225227459e-01 0.0000000000000000e+00  4.8940521300579888e-02 1.1113433479623858e+00 0.0000000000000000e+00  8.0093883891825153e-03 -1.3789813070539418e+00 0.0000000000000000e+00  3.3254715348956743e-02 6.7944882143104479e-01 0.0000000000000000e+00  -1.5576083094063614e-02 2.3332409963255615e-01 0.0000000000000000e+00  -1.2741785913093734e-03 1.2006782524536170e+00 0.0000000000000000e+00  -6.0227119368475128e-03 3.2874192085975013e-01 0.0000000000000000e+00  -6.8800874129640059e-03 6.9597098936667834e-01 0.0000000000000000e+00  2.3915222143702203e-01 5.9336232813882661e-01 0.0000000000000000e+00  -1.8268098867022697e-01 -1.3779946059221751e-01 0.0000000000000000e+00  1.8151951810449798e-01 -2.7036968387634441e-01 0.0000000000000000e+00  -9.5244829590118030e-03 7.2751256583278667e-01 0.0000000000000000e+00  -3.4403277613090436e-02 2.2069922252302379e-01 0.0000000000000000e+00  1.6326448546086045e-02 -1.0186816811876478e+00 0.0000000000000000e+00  8.3351474355523557e-03 4.2447382990495636e-01 0.0000000000000000e+00  -1.2741057683450110e-01 2.8959537672359020e-01 0.0000000000000000e+00  -5.0235604777967041e-02 1.0764546395299206e+00 0.0000000000000000e+00  1.1051317324777052e-02 -1.3977624536124439e-01 0.0000000000000000e+00  -2.2954241833907704e-02 -2.2612638046810671e-01 0.0000000000000000e+00  1.8960445556655148e-02 8.2527340518400627e-01 0.0000000000000000e+00  -3.5348138516503025e-01 -2.6085628402315009e-01 0.0000000000000000e+00  6.8718667042658355e-01 -4.0656254888166804e-01 0.0000000000000000e+00  8.8094902025772411e-03 -1.2071600676455225e+00 0.0000000000000000e+00  1.4795558971863571e-02 -9.6787409418008208e-01 0.0000000000000000e+00  -1.6175315009698377e-02 -1.3581252671548858e+00 0.0000000000000000e+00  -2.5465236878570796e-01 -2.3039359942002560e-01 0.0000000000000000e+00  -4.8434305792012536e-02 7.4932373306490085e-01 0.0000000000000000e+00  6.6536389107249361e-01 1.2890643824695143e+00 0.0000000000000000e+00  1.9066589289102795e-01 2.8763267322127140e-01 0.0000000000000000e+00  -6.0076482960324189e-02 -3.4635202631556311e-01 0.0000000000000000e+00  3.6279738085959280e-02 -3.3813645539485321e-01 0.0000000000000000e+00  -5.8661334158390310e-02 -1.2392922050130806e+00 0.0000000000000000e+00  6.8860512636972862e-02 1.2197697719162706e+00 0.0000000000000000e+00  4.1461401157165692e-02 1.3248696545919787e+00 0.0000000000000000e+00  -5.0953034324413275e-02 1.1511932627820618e+00 0.0000000000000000e+00  6.2353524772152585e-02 -1.1394361230289505e+00 0.0000000000000000e+00  5.9251321362362936e-03 5.5653686467448249e-01 0.0000000000000000e+00  3.9481921374088493e-02 -1.2057270398355251e+00 0.0000000000000000e+00  -3.8100217102735812e-02 1.0654852011769751e+00 0.0000000000000000e+00  -3.9566311028910735e-02 1.2727004483217756e+00 0.0000000000000000e+00  3.2808373651135292e-01 1.3832438450905724e+00 0.0000000000000000e+00  2.9207528892752629e-02 -4.7570585623997963e-01 0.0000000000000000e+00  -9.6747868792804184e-02 1.2180540530347153e+00 0.0000000000000000e+00  -8.4370523000668296e-01 8.8068514765514627e-01 0.0000000000000000e+00  -2.4476851959512047e-03 -1.0584268017833875e+00 0.0000000000000000e+00  3.0931605346418239e-02 -2.5518892825482714e-01 0.0000000000000000e+00  -1.0741826299478277e-01 1.7087937720769939e+00 0.0000000000000000e+00  3.5946299824196747e-02 -2.0901867094442736e-01 0.0000000000000000e+00  2.1903956829147576e-04 -4.2301143799592685e-04 0.0000000000000000e+00  -4.3329399731307387e-02 -4.6425081214623631e-01 0.0000000000000000e+00  4.3185931300449432e-01 -6.2568591874187052e-01 0.0000000000000000e+00  -1.6357611654731423e-02 -1.2530585619363055e+00 0.0000000000000000e+00  -2.9161577026607686e-02 -8.7505302298535614e-01 0.0000000000000000e+00  8.5453894209674072e-02 1.3491898311932722e+00 0.0000000000000000e+00  7.3763009767548286e-03 1.3266192537457364e-01 0.0000000000000000e+00  -3.9356348593842283e-05 -6.9671688949515483e-04 0.0000000000000000e+00  1.6975327140982946e-02 -9.6398771680355100e-01 0.0000000000000000e+00  1.1415752561775967e-01 -1.0289699772402652e+00 0.0000000000000000e+00  3.3332330497651032e-02 2.1633315568022490e-01 0.0000000000000000e+00  -3.6283786389990584e-04 -7.9338852020443434e-04 0.0000000000000000e+00  -9.0439319412995448e-02 9.7614330900072918e-02 0.0000000000000000e+00  -6.4636438300277529e-02 1.2469876888506704e+00 0.0000000000000000e+00  7.1556127157150234e-02 -6.3175698158172711e-01 0.0000000000000000e+00  5.0101028924425303e-03 5.9510225498017189e-01 0.0000000000000000e+00  3.2959706579092728e-04 5.3241941263755261e-04 0.0000000000000000e+00  -6.5076566311702577e-01 1.2731089620362372e+00 0.0000000000000000e+00  9.3607515775634018e-02 8.0529067387982800e-01 0.0000000000000000e+00  5.1268922667374046e-02 6.5022877321227757e-01 0.0000000000000000e+00  -1.2218619198612430e-02 -3.7380650925835290e-03 0.0000000000000000e+00  -1.2491000461263337e-02 -1.0524671065433311e+00 0.0000000000000000e+00  1.0740945739419538e-02 1.7675411454923992e-01 0.0000000000000000e+00  -3.8468864302976441e-01 1.9755692184022744e+00 0.0000000000000000e+00  -1.0237434291771519e-01 8.9644075739207219e-01 0.0000000000000000e+00  -6.7691786422460265e-02 -9.4385106978134858e-01 0.0000000000000000e+00  1.9005367060242148e-01 -1.1312705929330704e-02 0.0000000000000000e+00  -6.8737923038470178e-02 -4.8192782621884167e-01 0.0000000000000000e+00  -2.0839987729393439e-02 6.9798208539164475e-01 0.0000000000000000e+00  4.5864591391126435e-03 -9.4407884627830108e-01 0.0000000000000000e+00  5.5376594634007716e-04 -5.3834259940721118e-04 0.0000000000000000e+00  -3.2817883931419167e-01 1.3712771188597679e+00 0.0000000000000000e+00  2.9540486995959159e-01 1.5609579141112537e+00 0.0000000000000000e+00  8.0920400489876056e-03 -8.8712052987388701e-01 0.0000000000000000e+00  -1.7672252195186269e-01 -5.2035044776460193e-01 0.0000000000000000e+00  2.1803664163643693e-02 2.6890385137153178e-01 0.0000000000000000e+00  -1.6465231490346528e-02 -1.2628412273780005e+00 0.0000000000000000e+00  -1.8553268034249215e-05 -1.1308786031946282e-05 0.0000000000000000e+00  1.0858836223888373e-02 1.2040746215551403e+00 0.0000000000000000e+00  2.5310740017391083e-02 8.2713666056416180e-01 0.0000000000000000e+00  5.5618039397477122e-02 1.2733788146797440e+00 0.0000000000000000e+00  5.2234861434908577e-04 6.9668478331998715e-04 0.0000000000000000e+00  -1.6803591958493461e-02 -8.0385202443522807e-01 0.0000000000000000e+00  -1.1871543976614688e-02 7.0832752129256660e-01 0.0000000000000000e+00  4.6096144884289175e-01 2.0333812875677726e+00 0.0000000000000000e+00  -5.7619725128711221e-03 -1.1047225130357057e+00 0.0000000000000000e+00  1.5068257339768459e-03 6.7616256480803594e-01 0.0000000000000000e+00  1.3424511795575791e-02 1.3526211479272096e-01 0.0000000000000000e+00  -3.5294003902325691e-02 1.0514807891600835e+00 0.0000000000000000e+00  -1.6469801394549760e-02 -6.6959957618610866e-01 0.0000000000000000e+00  1.5182399321956022e-01 -2.6528388525431579e-01 0.0000000000000000e+00  6.3860928034390585e-02 1.3139601997906434e+00 0.0000000000000000e+00  3.3458780282333317e-02 9.3988690723968024e-02 0.0000000000000000e+00  -2.3715418603923602e-01 -8.1832853326155230e-01 0.0000000000000000e+00  7.3887807271542955e-02 1.7527303207591447e+00 0.0000000000000000e+00  6.6401276000319809e-02 -6.2810002743139681e-01 0.0000000000000000e+00  -2.2624315982524273e-01 -5.8914292813787306e-01 0.0000000000000000e+00  4.5029585854260604e-02 -1.3477780918117168e+00 0.0000000000000000e+00  2.6104183442633898e-02 -8.9540662621764444e-01 0.0000000000000000e+00  2.0113436227853509e-01 1.0144320216388953e+00 0.0000000000000000e+00  -2.3515011108089375e-04 4.391876036228087