<?xml version="1.0"?>
<VTKFile type="UnstructuredGrid"  version="0.1"  >
<UnstructuredGrid>
<Piece  NumberOfPoints="5089" NumberOfCells="9865">
<Points>
<DataArray  type="Float64"  NumberOfComponents="3"  format="ascii">0 1.5 0  0 0 0  0.1029058182573948 0 0  0.1029058182573948 0.02393156642875577 0  0.1251489251828899 0.06631226582407952 0  0.1645395112957465 0.09350162426854149 0  0.2120536680255323 0.0992708874098054 0  0.2568064746731156 0.08229838658936564 0  0.288545602565321 0.04647231720437685 0  0.3 0 0  0.51 0 0  0.5220577136594005 0.04499999999999999 0  0.555 0.07794228634059948 0  0.6 0.09 0  0.645 0.07794228634059946 0  0.6779422863405995 0.04499999999999999 0  0.6899999999999999 0 0  0.8924037639192813 0 0  0.8924037639192813 0.02287028598995353 0  0.9110081306187559 0.06465637775217206 0  0.9450000000000001 0.09526279441628825 0  0.9885018690405581 0.1093974084905101 0  1.033991869381244 0.1046162167924669 0  1.073604366699474 0.08174593080251337 0  1.100490000340686 0.04474103073833802 0  1.11 0 0  1.502905818257395 0 0  1.502905818257395 0.02393156642875577 0  1.52514892518289 0.06631226582407952 0  1.564539511295747 0.09350162426854149 0  1.612053668025532 0.0992708874098054 0  1.656806474673116 0.08229838658936564 0  1.688545602565321 0.04647231720437685 0  1.7 0 0  1.82324056211084 0 0  1.82324056211084 0.02253860454731437 0  1.847611141284377 0.06045996594834066 0  1.888614812938137 0.07918571535047463 0  1.933233201040151 0.07277055962836147 0  1.967300282626494 0.0432512653964478 0  1.98 0 0  2.202905818257395 0 0  2.202905818257395 0.02393156642875577 0  2.22514892518289 0.06631226582407952 0  2.264539511295746 0.09350162426854149 0  2.312053668025532 0.0992708874098054 0  2.356806474673115 0.08229838658936564 0  2.388545602565321 0.04647231720437685 0  2.4 0 0  2.51 0 0  2.522057713659401 0.04499999999999999 0  2.555 0.07794228634059948 0  2.6 0.09 0  2.645 0.07794228634059946 0  2.677942286340599 0.04499999999999999 0  2.69 0 0  3 0 0  3 1.5 0  0 0.75 0  1.5 1.5 0  0 0.375 0  0 0.1875 0  0.75 1.5 0  2.25 1.5 0  3 0.75 0  1.803364316093307 0.8194216192460635 0  0.7085714285714286 0.7914285714285714 0  2.396697907928333 0.698796196655595 0  1.26039230397729 0.6323879781298929 0  1.125 1.5 0  3 1.125 0  0.375 1.5 0  1.418284719659703 1.05567510076647 0  2.625 1.5 0  0 1.125 0  2.4375 1.120298797465005 0  0.4140309460188812 0.4815551607069073 0  0.9375 1.133540466589862 0  1.875 1.5 0  0.4143011358073044 1.085698864192695 0  2.042557228405723 0.4764057674039468 0  3 0.375 0  1.615235786026768 0.4839120951620492 0  0.9172436665953028 0.4786128535408891 0  2.136144598898015 0.9367443054342734 0  2.712089662802327 0.5625 0  1.752709466448716 1.168812671476193 0  2.696461986964791 0.9012929362807449 0  1.307422665144653 0.3094324321200764 0  2.0625 1.24476578117044 0  2.446405755792607 0.3860402512509704 0  0.3158723471199726 0.7836709721106835 0  1.018921994797561 0.831404696897531 0  1.521099871135537 0.7571953762650785 0  2.718190509848388 1.189592528269884 0  0.665307193508031 1.225469494285917 0  1.199897701782483 1.230481185797768 0  0.2233959957266646 1.276604004273335 0  0.6649397520368477 0.3607836886074089 0  0 0.5625 0  2.685543358160364 0.3192521589045413 0  1.775621962986754 0.2975552026784072 0  2.025654700292002 0.7195245521041802 0  0.1961827192748887 0.9897295638426992 0  1.25729921569077 0.8746334216075233 0  1.534142212444284 1.264044413891354 0  1.624439414641745 0.9597398592303362 0  2.117668421489377 0.2641528949307972 0  1.945094170902585 1.053880768096555 0  3 0.1875 0  0.6251639682912251 1.002291403912492 0  0.719601375969486 0.5727782913443102 0  0.2313942916225519 0.3335511938861402 0  0.4687668770508729 0.274248243200137 0  0.5143238740412669 0.6811446824633056 0  1.829350286632844 0.5059917594077202 0  1.082379929992235 0.3249418149194327 0  2.540679850598416 1.305492850437689 0  2.282283153018704 1.279796495628565 0  2.355666841619378 0.9154942188580675 0  0.2114722061938988 0.5448236655965607 0  3 1.3125 0  2.8125 1.5 0  2.263750685400308 0.5173381079832993 0  0.4343085727049624 1.296611441170993 0  1.6875 1.5 0  1.016037518489582 1.324553740130353 0  0.846292314151325 0.9469220663180872 0  1.122827752751251 1.035495517001457 0  1.3125 1.5 0  1.306452909128697 0 0  0.8906638629565067 0.6773217378320744 0  1.517175933126145 0.2981487507037606 0  0.7996957920902151 0.2224603600775558 0  1.446370464174038 0.5785990786868803 0  1.689965192988266 0.6625083927402473 0  0.4864273298880485 0.870473805626289 0  3 0.9375 0  2.831315819563651 1.036097903808422 0  1.106384347284952 0.5163011422226527 0  0.5625 1.5 0  0.9375 1.5 0  0.1875 1.5 0  2.0625 1.5 0  3 0.5625 0  0 0.9375 0  0 1.3125 0  2.4375 1.5 0  2.196044825237544 1.113880351688974 0  2.210431846521007 0.695834380790271 0  0.8262236946704767 1.326155809103077 0  2.523003751809735 0.8349453583788917 0  1.882533682486712 1.30904671408086 0  2.845 0 0  2.813607095438526 0.1837681344374856 0  2.298597604800397 0.280431891689246 0  1.972062138207083 0.8834951655964545 0  1.943392101370151 0.2475417334111557 0  2.828663592588797 0.4267055109367558 0  2.803791026183859 0.7364868569598708 0  2.523250359922468 0.5585816735541729 0  2.602935827188279 1.053310414780935 0  1.692458045540587 1.328962813001376 0  1.232271555781778 0.154950218767993 0  1.36985844680238 1.21899526865025 0  1.785321775315372 1.004919979330962 0  2.534633602602767 0.2439507161942105 0  0.7651985499724481 1.092302611968735 0  2.637828969450683 0.71279922663893 0  1.100469689258933 0.6843495375675052 0  1.315800235513153 0.4755545830105288 0  1.405546076805209 0.1782543944119986 0  2.826282129872177 1.326282129872177 0  0.575884497984488 0.4967904868667201 0  0.1516233666565383 0.826056857120972 0  0.3483704262380678 0.6272257636119053 0  1.568331672486121 1.108640197801574 0  1.475101554186818 0.9082985267599337 0  1.868470483419324 0.6670273102604994 0  0.3467545185571825 0.9433646607171683 0  2.15625 1.373787484318285 0  1.41742615593433 1.367603819494743 0  2.854904919456998 0.8828609574219635 0  0.9476741986655126 0.255395459587152 0  1.267450600339273 1.091056105706913 0  0.114311143675241 0.65625 0  0.65625 1.37859278398136 0  2.170651243108527 0.4023187025489676 0  1.21875 1.380886352874642 0  0.3798992233573569 0.1593768045411093 0  0.9831420651531181 0.9956358347774316 0  1.456186685150796 0.4319140716985383 0  2.586721317152155 0.4269308613840649 0  2.863979293145301 1.178604739864835 0  1.658646098314701 0.8045749301224775 0  1.383553643956373 0.7098158224076794 0  0.154006438477797 1.138458423126247 0  2.856044831401163 0.5977865618779903 0  0.553876003596687 1.130313370813194 0  2.680231675041409 1.360526450748891 0  2.486056782242186 0.9722817331473952 0  1.891212003911469 0.3789027676568836 0  0.8138227412155181 0.37102502168449 0  1.064674644221452 1.192903489156071 0  0.6045358160041144 0.2320910326486189 0  1.194008126159845 0.4081242368041457 0  2.138311355076408 0.5770795769918613 0  0.134142636330111 0.2313017261983794 0  0.8460209454012837 0.8084258449188535 0  0.1293517554287885 0.4305045409359897 0  0.3205820557512212 1.373790064297892 0  0.2928933613730453 1.155196229839076 0  2.404969940572298 1.358123451328196 0  0.9933877375830629 0.5899302104012978 0  2.090287791367255 0.1211621925433303 0  2.904889173308855 0.28125 0  0.1246766077328953 1.375323392267105 0  2.302041695038792 0.7931069109810627 0  2.389228836127323 0.5648368411465005 0  1.886839219693261 1.174850198523801 0  1.96875 1.5 0  2.005259577028834 1.368575570359887 0  2.58746882374347 1.183267841227943 0  1.646515580921743 0.3486369169127919 0  1.980147904783248 0.5942137934419368 0  2.07740167257538 1.055304717195479 0  1.57300338334685 0.6065157750282059 0  1.59375 1.5 0  1.679678032322464 0.2100937046526968 0  2.252673654577562 0.9960348417811178 0  2.17832845930892 0.8178435559778986 0  1.78125 1.5 0  2.021596890434516 0.349571947542988 0  1.79926971381977 0.1752587163176004 0  0.503878860142697 0.3943984894172995 0  1.146622573165596 0.8060813049917908 0  3 1.40625 0  2.649807995179342 0.2020005420916801 0  0.3438742656237004 0.2790576170649142 0  1.546875 1.386334759531577 0  3 0.09375 0  1.320989371181643 0.9800954309611291 0  1.270074893254929 0.7536540780084714 0  2.70770359261854 0.4387759707667409 0  0.5606072232931772 1.296106034499297 0  0.7858104720553775 1.211812834033452 0  2.317237622700128 1.09958886094401 0  2.518665098961854 0.68166123334458 0  1.747777558052355 0.4158756118164814 0  1.683029275145126 1.069756268641544 0  0.46875 1.5 0  2.407758410849746 0.2048845882413086 0  2.396684507181482 1.235853070423643 0  1.919569286509587 0.7755948020085885 0  2.290752654053557 0.4002939182457882 0  0.2367853577638227 0.6856443876677092 0  1.644821718344275 1.219632237269969 0  0 1.03125 0  0.5821665354391095 0.7878606619613046 0  0.6422016866915001 0.674771619551397 0  0.2917070890414653 0.4458139506278615 0  0.7912018819596407 0 0  0.1045102716700244 1.249819735557644 0  1.151091219660612 0.9224858968529193 0  2.719174284445647 1.071883664029489 0  0.7216906855953001 0.918545393630683 0  0.2528020696803429 0.8787006417214202 0  1.726437981314609 0.9055659975386789 0  1.466273966174817 1.158744006060248 0  0.500278661176367 0.9948136517426003 0  1.114706325735654 0.2023659607018325 0  1.193213601931895 0.2926984867334158 0  0.9725372994821596 0.3724679154862157 0  2.214714190066689 0.1991474088029779 0  2.411776451427861 0.8179674328277735 0  1.997105232295531 1.153439169094244 0  0.497834479014996 1.390464488336983 0  0.4532232073331143 0.5868543641678674 0  0.4094710929462204 0.7215160819073434 0  0.2730945637736263 0.1927345247561336 0  2.091452909128697 0 0  1.88727127931541 0.9574017932976476 0  0.7331675361580886 0.4562359341911597 0  0.808798696301996 0.1107204599928528 0  2.794056136375906 0.2935548935723623 0  2.172174128810919 1.263645408055929 0  2.266351953173893 1.389929090293708 0  0.9205129738298803 1.252177379624563 0  2.58760749
[...]
<PointData  Vectors="f_60"> 
<DataArray  type="Float64"  Name="f_60"  NumberOfComponents="3" format="ascii">7.9771962030452350e-05 -3.9157798905149245e-04 0.0000000000000000e+00  4.4559860488093338e-04 1.0649151196954892e-04 0.0000000000000000e+00  3.1843434861069200e-04 4.2958404993352514e-04 0.0000000000000000e+00  1.7921765103650516e-04 3.6485633038855440e-04 0.0000000000000000e+00  -1.8285123090998169e-04 2.0357692086066558e-05 0.0000000000000000e+00  1.2843150770058711e-04 5.0966524769330951e-04 0.0000000000000000e+00  3.3912685376969500e-04 2.9574032673651199e-04 0.0000000000000000e+00  -5.4721470978880746e-05 1.1410441154647431e-04 0.0000000000000000e+00  1.3250083513737142e-04 3.1133122947839113e-04 0.0000000000000000e+00  4.2746305173677057e-04 2.1288057708909356e-04 0.0000000000000000e+00  9.2238532876052847e-05 2.7108237030779123e-04 0.0000000000000000e+00  2.3944399050543241e-04 4.6630250031184597e-04 0.0000000000000000e+00  1.5031483768251298e-04 2.9998697775154869e-04 0.0000000000000000e+00  2.8031522275993168e-05 9.2975112350995162e-05 0.0000000000000000e+00  -8.2637705080997468e-05 3.1640321910767790e-04 0.0000000000000000e+00  -1.7241246502768968e-04 4.3986862383536596e-04 0.0000000000000000e+00  -5.6226876054463124e-05 3.0344459913149712e-04 0.0000000000000000e+00  -5.4073860257314950e-04 3.8048197660667645e-04 0.0000000000000000e+00  -2.4133723968304088e-04 5.8604756179496571e-04 0.0000000000000000e+00  -3.1502844721894691e-05 4.1003620279594607e-04 0.0000000000000000e+00  -5.9439273559439686e-05 1.6335976409572576e-04 0.0000000000000000e+00  -1.7232576520015874e-04 3.0736312965368504e-04 0.0000000000000000e+00  1.4910346114728782e-04 3.2982480977923108e-04 0.0000000000000000e+00  3.2577334105043774e-04 1.3542432381337017e-04 0.0000000000000000e+00  -8.9765659969298712e-05 2.5910468632268674e-04 0.0000000000000000e+00  -1.4586059981632201e-04 4.2756683649051687e-04 0.0000000000000000e+00  -4.4357170368589869e-04 2.8784346420387464e-04 0.0000000000000000e+00  -2.7307954537441850e-04 4.2082068832990710e-04 0.0000000000000000e+00  3.4768901891628122e-05 2.1687503044919175e-04 0.0000000000000000e+00  -7.5365372182294052e-05 2.0286731690575521e-04 0.0000000000000000e+00  -1.6348258837129185e-04 5.2256587406234649e-04 0.0000000000000000e+00  4.1860111912425836e-04 2.1548695626430508e-04 0.0000000000000000e+00  -2.1106075288065992e-04 2.9538096304451917e-04 0.0000000000000000e+00  -2.4586035087202315e-04 5.4967755179352715e-04 0.0000000000000000e+00  -3.5483703850149376e-04 2.0897059666148319e-04 0.0000000000000000e+00  -1.3109359882201171e-04 2.2839991014150790e-04 0.0000000000000000e+00  8.6754538983202907e-05 2.0573084960275853e-04 0.0000000000000000e+00  -2.1732650372278226e-04 4.1965910381587204e-04 0.0000000000000000e+00  7.8045763207838822e-05 3.8490441575479397e-04 0.0000000000000000e+00  2.4313045449670022e-04 2.0827633653418498e-04 0.0000000000000000e+00  5.3874216802185552e-05 4.4709775706630464e-04 0.0000000000000000e+00  3.2556458897894225e-04 4.0744293466600436e-04 0.0000000000000000e+00  2.1286407513885239e-04 3.5949189765207819e-04 0.0000000000000000e+00  1.4509466515858700e-04 1.6658224437377919e-04 0.0000000000000000e+00  -1.8748403056859336e-04 2.5472482502708995e-04 0.0000000000000000e+00  2.7639902011719993e-04 3.0997960956368110e-04 0.0000000000000000e+00  -6.9172695923101204e-05 7.8098882789350515e-05 0.0000000000000000e+00  -8.4936297653098368e-06 5.5070956137430232e-04 0.0000000000000000e+00  2.5285642507571809e-04 5.6402689776369295e-04 0.0000000000000000e+00  3.4111778245224568e-04 8.8657827827321497e-04 0.0000000000000000e+00  4.8293764318843802e-04 7.3161851726965654e-04 0.0000000000000000e+00  1.8062246886250871e-04 -4.2415002767509339e-05 0.0000000000000000e+00  2.2883273984473508e-04 -4.3746132451210377e-05 0.0000000000000000e+00  5.4237732248580960e-05 -1.4820613921486865e-04 0.0000000000000000e+00  -1.5644495414931034e-04 1.0883995486984141e-03 0.0000000000000000e+00  8.4984283563225562e-04 5.5605433990250312e-04 0.0000000000000000e+00  -8.6875389142516465e-03 -1.3425141304020875e-03 0.0000000000000000e+00  8.2118575633623094e-04 7.5927582541891617e-04 0.0000000000000000e+00  -8.9766131171647824e-06 2.4972103403294923e-05 0.0000000000000000e+00  -3.9074856221032191e-05 -4.6567550525478910e-04 0.0000000000000000e+00  -1.5793072798424511e-05 4.7598360932474149e-05 0.0000000000000000e+00  3.6131413117283177e-05 1.6634444143051453e-04 0.0000000000000000e+00  -1.7163583724172705e-05 -1.5348484794475796e-04 0.0000000000000000e+00  -4.2582995006962789e-05 -9.4483523109627145e-05 0.0000000000000000e+00  3.3094283321739946e-04 -2.6147973813857774e-05 0.0000000000000000e+00  5.7225635963441563e-03 5.9764523861921592e-01 0.0000000000000000e+00  4.6124184871602688e-03 -3.5747452398756369e-01 0.0000000000000000e+00  -9.0775547951456505e-03 7.3146130826898748e-01 0.0000000000000000e+00  8.6555501445553951e-03 1.7790002398141908e-01 0.0000000000000000e+00  -3.5429156687351261e-04 -3.4487241598949348e-04 0.0000000000000000e+00  1.0857563327223649e-03 -3.3935251839794752e-05 0.0000000000000000e+00  1.0377363229220203e-04 -2.2699852206528395e-04 0.0000000000000000e+00  -7.8730180827630905e-03 -5.9542843564088482e-02 0.0000000000000000e+00  -5.2917681031459571e-04 -3.8428314080178784e-04 0.0000000000000000e+00  -1.0194134293498106e-05 2.8597820006512708e-05 0.0000000000000000e+00  1.1348357739056160e-01 5.4759845626336334e-01 0.0000000000000000e+00  2.3086863197283158e-02 -4.0930740183021719e-01 0.0000000000000000e+00  -2.0410669626354155e-02 3.8571381700542567e-01 0.0000000000000000e+00  3.6144599120084098e-04 -3.5647526996266022e-04 0.0000000000000000e+00  -1.1539513844972350e-02 -4.1167655474768955e-01 0.0000000000000000e+00  -2.7721422974541828e-02 2.7561872134084786e-01 0.0000000000000000e+00  -3.0988080762845311e-04 2.0539448288352146e-05 0.0000000000000000e+00  -1.6348293557369665e-03 -3.7720511882765462e-01 0.0000000000000000e+00  1.3420810065116782e-02 5.0948479012562453e-01 0.0000000000000000e+00  2.9938721767775969e-02 5.0159378057635085e-01 0.0000000000000000e+00  -9.6729781745109364e-02 8.6174941454624843e-01 0.0000000000000000e+00  2.5436292960330140e-03 3.2815060323817880e-01 0.0000000000000000e+00  8.3474822736212040e-02 8.6890664735315815e-01 0.0000000000000000e+00  1.8727972673784676e-02 -3.3765474199672713e-01 0.0000000000000000e+00  3.6907525596578138e-02 4.2893585415643964e-01 0.0000000000000000e+00  -1.1594593346637240e-01 4.5968354868530936e-01 0.0000000000000000e+00  5.9177157156589761e-03 4.9741948963900362e-01 0.0000000000000000e+00  1.0596558346303560e-03 -4.2866500984406908e-01 0.0000000000000000e+00  3.5667774664632610e-03 5.2039697277187269e-01 0.0000000000000000e+00  2.4646144296572067e-01 7.7664480968876792e-01 0.0000000000000000e+00  -2.5694978775512189e-02 1.0500716005988360e-01 0.0000000000000000e+00  -2.6305059200261771e-02 5.4828478414458559e-01 0.0000000000000000e+00  -2.4900792080074161e-02 -2.8329171967573012e-02 0.0000000000000000e+00  1.9073054339018566e-02 9.9973588130631744e-02 0.0000000000000000e+00  2.1516781177823944e-06 2.9942821191200488e-05 0.0000000000000000e+00  -2.3429076560827555e-01 7.7446376764703684e-01 0.0000000000000000e+00  -1.5962638003191518e-02 5.0086496727839402e-01 0.0000000000000000e+00  -3.5435907397042652e-05 9.4499271362880499e-02 0.0000000000000000e+00  -2.5478405688079747e-03 -3.3269214694612642e-01 0.0000000000000000e+00  -9.6721023745470003e-04 2.1119036003604327e-01 0.0000000000000000e+00  -1.4397434099545740e-02 4.2182033392165030e-01 0.0000000000000000e+00  2.1372765258247579e-03 -4.3550035388750358e-01 0.0000000000000000e+00  -6.0203128049748651e-02 5.6786072661527887e-01 0.0000000000000000e+00  2.0275280473805616e-02 -4.8217629890975822e-01 0.0000000000000000e+00  -2.8326842267235525e-03 6.9563243231552857e-05 0.0000000000000000e+00  -8.6492671439125490e-03 4.6410746110043527e-01 0.0000000000000000e+00  1.4220158742910634e-02 -4.4533876325619604e-01 0.0000000000000000e+00  3.3063472484187534e-02 6.7835677470042599e-02 0.0000000000000000e+00  3.8719298339139625e-02 -5.1956973869623424e-01 0.0000000000000000e+00  1.1789825614061732e-02 -1.3386053247271074e-01 0.0000000000000000e+00  -1.0539211304263888e-02 4.9625227783273856e-01 0.0000000000000000e+00  2.0509205950631298e-02 -4.1328402891615901e-01 0.0000000000000000e+00  1.9740724164743748e-01 -4.0821718902509507e-01 0.0000000000000000e+00  8.6269235923831844e-02 -3.5663736889150899e-01 0.0000000000000000e+00  4.8400707364946047e-02 4.8830436444171310e-01 0.0000000000000000e+00  1.4346408718391608e-02 -1.6872785717219946e-01 0.0000000000000000e+00  1.2822646117691681e-03 3.8551842109716734e-05 0.0000000000000000e+00  2.2316452448833241e-04 -1.6563068435989650e-04 0.0000000000000000e+00  -4.6839663234588970e-02 -3.9136431929577731e-01 0.0000000000000000e+00  -2.6681784492237924e-02 -5.1399062655298411e-01 0.0000000000000000e+00  -2.1177005845855955e-05 -1.5951308182956449e-04 0.0000000000000000e+00  -2.7687338166378722e-02 -4.0096096323603042e-01 0.0000000000000000e+00  -6.1546280746901131e-03 2.3353036982384096e-01 0.0000000000000000e+00  -1.1542366380505842e-02 -1.8227868522344107e-02 0.0000000000000000e+00  -1.6677956027230930e-04 -6.6212459290550005e-05 0.0000000000000000e+00  -5.3046238697287485e-04 4.0178057579101455e-04 0.0000000000000000e+00  8.5699216871162574e-03 5.3364630660579460e-01 0.0000000000000000e+00  -4.8216368222088468e-03 5.1651082161910733e-01 0.0000000000000000e+00  1.8517421328792045e-02 -2.8578691492918212e-01 0.0000000000000000e+00  6.0091902486944480e-03 2.5377065348598588e-01 0.0000000000000000e+00  7.7164022421469063e-04 -3.2512584892941582e-01 0.0000000000000000e+00  1.5055115186380461e-03 -4.0577114244882290e-01 0.0000000000000000e+00  6.7581906235864150e-04 7.4603875611277366e-06 0.0000000000000000e+00  1.8120788786422803e-01 -9.9351917046004851e-02 0.0000000000000000e+00  1.3714328240317444e-02 -2.0218539818520956e-01 0.0000000000000000e+00  -3.3687485980024237e-04 -4.6964622429713576e-04 0.0000000000000000e+00  3.5050682689749177e-04 -4.0286684697957831e-04 0.0000000000000000e+00  1.0130228506826121e-04 -8.4387295074637525e-05 0.0000000000000000e+00  -3.8277309154760927e-04 -4.9677890711706356e-04 0.0000000000000000e+00  -1.5078460135288817e-04 -1.2419723146932785e-04 0.0000000000000000e+00  1.7774467156966269e-06 3.6469655588052465e-06 0.0000000000000000e+00  1.0726290986714096e-05 7.6627451829923500e-07 0.0000000000000000e+00  2.8779754491010641e-04 -5.4570905557060412e-04 0.0000000000000000e+00  5.7023542669731107e-02 -1.3424025084999663e-01 0.0000000000000000e+00  -6.4712557209647735e-03 -2.3701151745280902e-01 0.0000000000000000e+00  -5.3340369862658762e-02 1.6513379699585676e-02 0.0000000000000000e+00  3.6652767730988411e-02 -2.1813707660462520e-01 0.0000000000000000e+00  2.0157604481226464e-02 -5.7301316450220734e-02 0.0000000000000000e+00  7.3036797764982687e-04 3.2636707577938812e-04 0.0000000000000000e+00  -4.1966514394081211e-01 -1.2776274324449780e-01 0.0000000000000000e+00  -8.7787568075132272e-02 -1.8758823727485707e-01 0.0000000000000000e+00  1.3917159720427659e-02 -4.1354195605549665e-01 0.0000000000000000e+00  -4.3499714011747639e-02 -4.8876139331793145e-01 0.0000000000000000e+00  -2.0875085920535907e-01 -1.0215735199221511e-01 0.0000000000000000e+00  -2.2570682908495238e-03 9.9991731751407797e-02 0.0000000000000000e+00  -7.0100857716004328e-02 -2.3254698247989811e-01 0.0000000000000000e+00  1.3622790906462429e-01 -9.0525586396075514e-03 0.0000000000000000e+00  -2.4625272950836521e-02 -3.1850662360559712e-01 0.0000000000000000e+00  2.2222530647726304e-02 3.9559669555951676e-01 0.0000000000000000e+00  -2.1119319074771346e-02 -4.8630837347241035e-01 0.0000000000000000e+00  8.4757708478281225e-03 5.6388085986864156e-01 0.0000000000000000e+00  -2.0864568347342027e-01 -3.8116076737435051e-01 0.0000000000000000e+00  -1.6463851797814948e-02 -5.1953002695994877e-01 0.0000000000000000e+00  -1.0545863792179712e-02 4.4561968639031685e-01 0.0000000000000000e+00  7.7648408522966528e-03 -2.6247924591994104e-01 0.0000000000000000e+00  1.2323421592514214e-02 -3.9924226917106620e-01 0.0000000000000000e+00  3.3139137304329110e-02 -2.3139819419322963e-01 0.0000000000000000e+00  4.2537302148482220e-01 -1.8765682483760163e-01 0.0000000000000000e+00  1.9749257573211693e-02 4.6298962268399085e-01 0.0000000000000000e+00  2.9149124076898085e-03 -5.7050824841326697e-01 0.0000000000000000e+00  1.3897502073657119e-02 2.7450035220127139e-01 0.0000000000000000e+00  -5.4616236276586730e-03 9.9414895217051588e-02 0.0000000000000000e+00  -6.1159261703440536e-05 4.9560157482598599e-01 0.0000000000000000e+00  -2.6242541075875534e-03 1.3801479419521862e-01 0.0000000000000000e+00  -1.8889976398094753e-03 2.8740170406009813e-01 0.0000000000000000e+00  9.9392376465770385e-02 2.2614967200052813e-01 0.0000000000000000e+00  -7.0940556300836746e-02 -7.3559637359836602e-02 0.0000000000000000e+00  8.6222057734455126e-02 -1.0759582117993813e-01 0.0000000000000000e+00  -4.2221189254590388e-03 2.9897012183081789e-01 0.0000000000000000e+00  -1.3484964087803647e-02 9.6767560984202194e-02 0.0000000000000000e+00  5.7955775716807710e-03 -4.2342183734810429e-01 0.0000000000000000e+00  -1.1518246125729065e-03 1.8641268339693975e-01 0.0000000000000000e+00  -5.3546182389155331e-02 1.4198152211726711e-01 0.0000000000000000e+00  -2.2480132333023081e-02 4.5480387575923098e-01 0.0000000000000000e+00  2.7825087543830642e-03 -7.0280338431692999e-02 0.0000000000000000e+00  -9.3667437397638668e-03 -8.9631025054234120e-02 0.0000000000000000e+00  6.0635878025887503e-03 3.4364209238880616e-01 0.0000000000000000e+00  -1.4294339693181340e-01 -1.5250256906357812e-01 0.0000000000000000e+00  2.9949884448331965e-01 -1.3496528227013696e-01 0.0000000000000000e+00  3.4238183136400860e-03 -4.9787064659458069e-01 0.0000000000000000e+00  5.2499537748879124e-03 -3.9813609638229508e-01 0.0000000000000000e+00  -6.8484256011900821e-03 -5.6413961790960221e-01 0.0000000000000000e+00  -9.1705377498544308e-02 -1.0328427790386575e-01 0.0000000000000000e+00  -1.7996343401381277e-02 3.0320627051763194e-01 0.0000000000000000e+00  2.8675714787602191e-01 5.8665020368621901e-01 0.0000000000000000e+00  8.2335359259449251e-02 9.0583642107214979e-02 0.0000000000000000e+00  -2.4908865518888823e-02 -1.3351946994878347e-01 0.0000000000000000e+00  1.3961312485629835e-02 -1.3568236458163380e-01 0.0000000000000000e+00  -2.4898913880201858e-02 -5.1464945011641927e-01 0.0000000000000000e+00  2.5641197451081260e-02 5.0086276461006751e-01 0.0000000000000000e+00  1.7969813528218387e-02 5.4803719390763139e-01 0.0000000000000000e+00  -2.3457662672078550e-02 4.8411983568954692e-01 0.0000000000000000e+00  2.3961387222677700e-02 -4.7933288401420615e-01 0.0000000000000000e+00  2.6269070655679377e-03 2.3024724598593257e-01 0.0000000000000000e+00  1.4499466982710811e-02 -5.0123663764565907e-01 0.0000000000000000e+00  -1.2654762853514618e-02 4.5069930452733453e-01 0.0000000000000000e+00  -1.4037884096310980e-02 5.2424941339981490e-01 0.0000000000000000e+00  1.4227029986966791e-01 5.7129691734065369e-01 0.0000000000000000e+00  1.1276160827716207e-02 -2.0086791650890676e-01 0.0000000000000000e+00  -3.9605942514418846e-02 4.9740006094087097e-01 0.0000000000000000e+00  -3.5448018551274108e-01 2.2363415306162110e-01 0.0000000000000000e+00  5.2297080932454786e-03 -4.3629016343336113e-01 0.0000000000000000e+00  1.3774029733970766e-02 -9.9189321663305310e-02 0.0000000000000000e+00  -4.9230648419687141e-02 7.0757084419672867e-01 0.0000000000000000e+00  1.6014746841723299e-02 -9.0489603222647638e-02 0.0000000000000000e+00  3.5704424956200229e-05 -1.4215055187973534e-04 0.0000000000000000e+00  -1.1113731186903945e-02 -1.8915061581058421e-01 0.0000000000000000e+00  1.8320391446953768e-01 -2.0308917615592881e-01 0.0000000000000000e+00  -7.8902867075673969e-03 -5.1764784962125798e-01 0.0000000000000000e+00  -1.1750864489066662e-02 -3.6276276053977602e-01 0.0000000000000000e+00  3.4367127464427334e-02 5.6265337885350841e-01 0.0000000000000000e+00  2.6353544054095548e-03 5.4201743133603902e-02 0.0000000000000000e+00  1.3009552932433791e-04 -3.0817295504521322e-04 0.0000000000000000e+00  3.5475025775243544e-03 -4.0297724878195224e-01 0.0000000000000000e+00  5.0361563026932357e-02 -4.2063990658554501e-01 0.0000000000000000e+00  1.4971095680573667e-02 8.5443518849165928e-02 0.0000000000000000e+00  -2.2488856399218568e-04 -4.7829943473021115e-04 0.0000000000000000e+00  -3.9039373826641903e-02 2.6676968483778294e-02 0.0000000000000000e+00  -2.5104429768785137e-02 5.1663934453377525e-01 0.0000000000000000e+00  2.7399691928282247e-02 -2.5191375028315943e-01 0.0000000000000000e+00  2.1368716171771937e-03 2.4624405936060059e-01 0.0000000000000000e+00  1.6618499300029357e-03 -1.7466116881991284e-05 0.0000000000000000e+00  -2.7167098105703297e-01 4.5438421199168305e-01 0.0000000000000000e+00  3.7591647075114247e-02 3.1862563948589251e-01 0.0000000000000000e+00  2.0207580125079089e-02 2.7834201229809091e-01 0.0000000000000000e+00  -4.8779451374920844e-03 -2.3651746651855584e-03 0.0000000000000000e+00  -5.6747793823824612e-03 -4.3283204357341659e-01 0.0000000000000000e+00  4.4747964553727192e-03 7.1269574778120862e-02 0.0000000000000000e+00  -1.6852428262640834e-01 8.4269446667971581e-01 0.0000000000000000e+00  -3.9031123910972472e-02 3.6082306714916795e-01 0.0000000000000000e+00  -2.8084408227185310e-02 -3.9823252028554657e-01 0.0000000000000000e+00  7.9454741655035285e-02 2.7802599180915214e-02 0.0000000000000000e+00  -2.1354456597367295e-02 -1.9230444568746446e-01 0.0000000000000000e+00  -1.0000844139417406e-02 2.8625446810293975e-01 0.0000000000000000e+00  1.9986320822357080e-03 -3.8840980333986630e-01 0.0000000000000000e+00  1.2722714508225716e-04 -1.8882247060052833e-04 0.0000000000000000e+00  -1.3572344545754297e-01 5.8707514601218380e-01 0.0000000000000000e+00  1.2078580796702949e-01 6.4660075635090974e-01 0.0000000000000000e+00  4.2439665109662104e-03 -3.6625601052356521e-01 0.0000000000000000e+00  -7.3695792661870124e-02 -2.3727369277917237e-01 0.0000000000000000e+00  9.1505145895611640e-03 1.1324584360088376e-01 0.0000000000000000e+00  -6.9263125345476765e-03 -5.1948769512202642e-01 0.0000000000000000e+00  -1.2307408859979650e-05 2.5700361104406198e-05 0.0000000000000000e+00  5.3473868392537793e-03 4.9751509809640554e-01 0.0000000000000000e+00  1.0841595156325949e-02 3.3796849619187180e-01 0.0000000000000000e+00  2.3436340936396367e-02 5.2574505813236239e-01 0.0000000000000000e+00  4.0128085489238063e-04 4.2370770361640266e-04 0.0000000000000000e+00  -7.0732674304391204e-03 -3.3209850122388074e-01 0.0000000000000000e+00  -4.3467121445439393e-03 2.9101613303453450e-01 0.0000000000000000e+00  1.8193445638196554e-01 8.1957174515281206e-01 0.0000000000000000e+00  -3.2569567614069497e-03 -4.5615166568185939e-01 0.0000000000000000e+00  1.4466618660332398e-03 2.7850941609136143e-01 0.0000000000000000e+00  5.3156826096893983e-03 5.8017691384231566e-02 0.0000000000000000e+00  -1.3332064361955057e-02 4.3059283784295027e-01 0.0000000000000000e+00  -6.7653567988695245e-03 -2.7998146442651917e-01 0.0000000000000000e+00  5.7077875130426711e-02 -9.6408600360241389e-02 0.0000000000000000e+00  2.7500574654056989e-02 5.4418405473216003e-01 0.0000000000000000e+00  1.2583488091570888e-02 3.3828008622445178e-02 0.0000000000000000e+00  -9.9362396351723906e-02 -3.2245094765531868e-01 0.0000000000000000e+00  2.5111543287373136e-02 7.2304181335441331e-01 0.0000000000000000e+00  2.8059994907008626e-02 -2.4851541348571068e-01 0.0000000000000000e+00  -8.8020029392500670e-02 -2.6222313696235200e-01 0.0000000000000000e+00  1.6889655628308561e-02 -5.5715193397107621e-01 0.0000000000000000e+00  9.7720037567210535e-03 -3.7381088323028361e-01 0.0000000000000000e+00  7.3584348772672600e-02 4.2710634648930895e-01 0.0000000000000000e+00  -9.8296409068930743e-05 1.1823449258169896e-