<?xml version="1.0"?>
<VTKFile type="UnstructuredGrid"  version="0.1"  >
<UnstructuredGrid>
<Piece  NumberOfPoints="5089" NumberOfCells="9865">
<Points>
<DataArray  type="Float64"  NumberOfComponents="3"  format="ascii">0 1.5 0  0 0 0  0.1029058182573948 0 0  0.1029058182573948 0.02393156642875577 0  0.1251489251828899 0.06631226582407952 0  0.1645395112957465 0.09350162426854149 0  0.2120536680255323 0.0992708874098054 0  0.2568064746731156 0.08229838658936564 0  0.288545602565321 0.04647231720437685 0  0.3 0 0  0.51 0 0  0.5220577136594005 0.04499999999999999 0  0.555 0.07794228634059948 0  0.6 0.09 0  0.645 0.07794228634059946 0  0.6779422863405995 0.04499999999999999 0  0.6899999999999999 0 0  0.8924037639192813 0 0  0.8924037639192813 0.02287028598995353 0  0.9110081306187559 0.06465637775217206 0  0.9450000000000001 0.09526279441628825 0  0.9885018690405581 0.1093974084905101 0  1.033991869381244 0.1046162167924669 0  1.073604366699474 0.08174593080251337 0  1.100490000340686 0.04474103073833802 0  1.11 0 0  1.502905818257395 0 0  1.502905818257395 0.02393156642875577 0  1.52514892518289 0.06631226582407952 0  1.564539511295747 0.09350162426854149 0  1.612053668025532 0.0992708874098054 0  1.656806474673116 0.08229838658936564 0  1.688545602565321 0.04647231720437685 0  1.7 0 0  1.82324056211084 0 0  1.82324056211084 0.02253860454731437 0  1.847611141284377 0.06045996594834066 0  1.888614812938137 0.07918571535047463 0  1.933233201040151 0.07277055962836147 0  1.967300282626494 0.0432512653964478 0  1.98 0 0  2.202905818257395 0 0  2.202905818257395 0.02393156642875577 0  2.22514892518289 0.06631226582407952 0  2.264539511295746 0.09350162426854149 0  2.312053668025532 0.0992708874098054 0  2.356806474673115 0.08229838658936564 0  2.388545602565321 0.04647231720437685 0  2.4 0 0  2.51 0 0  2.522057713659401 0.04499999999999999 0  2.555 0.07794228634059948 0  2.6 0.09 0  2.645 0.07794228634059946 0  2.677942286340599 0.04499999999999999 0  2.69 0 0  3 0 0  3 1.5 0  0 0.75 0  1.5 1.5 0  0 0.375 0  0 0.1875 0  0.75 1.5 0  2.25 1.5 0  3 0.75 0  1.803364316093307 0.8194216192460635 0  0.7085714285714286 0.7914285714285714 0  2.396697907928333 0.698796196655595 0  1.26039230397729 0.6323879781298929 0  1.125 1.5 0  3 1.125 0  0.375 1.5 0  1.418284719659703 1.05567510076647 0  2.625 1.5 0  0 1.125 0  2.4375 1.120298797465005 0  0.4140309460188812 0.4815551607069073 0  0.9375 1.133540466589862 0  1.875 1.5 0  0.4143011358073044 1.085698864192695 0  2.042557228405723 0.4764057674039468 0  3 0.375 0  1.615235786026768 0.4839120951620492 0  0.9172436665953028 0.4786128535408891 0  2.136144598898015 0.9367443054342734 0  2.712089662802327 0.5625 0  1.752709466448716 1.168812671476193 0  2.696461986964791 0.9012929362807449 0  1.307422665144653 0.3094324321200764 0  2.0625 1.24476578117044 0  2.446405755792607 0.3860402512509704 0  0.3158723471199726 0.7836709721106835 0  1.018921994797561 0.831404696897531 0  1.521099871135537 0.7571953762650785 0  2.718190509848388 1.189592528269884 0  0.665307193508031 1.225469494285917 0  1.199897701782483 1.230481185797768 0  0.2233959957266646 1.276604004273335 0  0.6649397520368477 0.3607836886074089 0  0 0.5625 0  2.685543358160364 0.3192521589045413 0  1.775621962986754 0.2975552026784072 0  2.025654700292002 0.7195245521041802 0  0.1961827192748887 0.9897295638426992 0  1.25729921569077 0.8746334216075233 0  1.534142212444284 1.264044413891354 0  1.624439414641745 0.9597398592303362 0  2.117668421489377 0.2641528949307972 0  1.945094170902585 1.053880768096555 0  3 0.1875 0  0.6251639682912251 1.002291403912492 0  0.719601375969486 0.5727782913443102 0  0.2313942916225519 0.3335511938861402 0  0.4687668770508729 0.274248243200137 0  0.5143238740412669 0.6811446824633056 0  1.829350286632844 0.5059917594077202 0  1.082379929992235 0.3249418149194327 0  2.540679850598416 1.305492850437689 0  2.282283153018704 1.279796495628565 0  2.355666841619378 0.9154942188580675 0  0.2114722061938988 0.5448236655965607 0  3 1.3125 0  2.8125 1.5 0  2.263750685400308 0.5173381079832993 0  0.4343085727049624 1.296611441170993 0  1.6875 1.5 0  1.016037518489582 1.324553740130353 0  0.846292314151325 0.9469220663180872 0  1.122827752751251 1.035495517001457 0  1.3125 1.5 0  1.306452909128697 0 0  0.8906638629565067 0.6773217378320744 0  1.517175933126145 0.2981487507037606 0  0.7996957920902151 0.2224603600775558 0  1.446370464174038 0.5785990786868803 0  1.689965192988266 0.6625083927402473 0  0.4864273298880485 0.870473805626289 0  3 0.9375 0  2.831315819563651 1.036097903808422 0  1.106384347284952 0.5163011422226527 0  0.5625 1.5 0  0.9375 1.5 0  0.1875 1.5 0  2.0625 1.5 0  3 0.5625 0  0 0.9375 0  0 1.3125 0  2.4375 1.5 0  2.196044825237544 1.113880351688974 0  2.210431846521007 0.695834380790271 0  0.8262236946704767 1.326155809103077 0  2.523003751809735 0.8349453583788917 0  1.882533682486712 1.30904671408086 0  2.845 0 0  2.813607095438526 0.1837681344374856 0  2.298597604800397 0.280431891689246 0  1.972062138207083 0.8834951655964545 0  1.943392101370151 0.2475417334111557 0  2.828663592588797 0.4267055109367558 0  2.803791026183859 0.7364868569598708 0  2.523250359922468 0.5585816735541729 0  2.602935827188279 1.053310414780935 0  1.692458045540587 1.328962813001376 0  1.232271555781778 0.154950218767993 0  1.36985844680238 1.21899526865025 0  1.785321775315372 1.004919979330962 0  2.534633602602767 0.2439507161942105 0  0.7651985499724481 1.092302611968735 0  2.637828969450683 0.71279922663893 0  1.100469689258933 0.6843495375675052 0  1.315800235513153 0.4755545830105288 0  1.405546076805209 0.1782543944119986 0  2.826282129872177 1.326282129872177 0  0.575884497984488 0.4967904868667201 0  0.1516233666565383 0.826056857120972 0  0.3483704262380678 0.6272257636119053 0  1.568331672486121 1.108640197801574 0  1.475101554186818 0.9082985267599337 0  1.868470483419324 0.6670273102604994 0  0.3467545185571825 0.9433646607171683 0  2.15625 1.373787484318285 0  1.41742615593433 1.367603819494743 0  2.854904919456998 0.8828609574219635 0  0.9476741986655126 0.255395459587152 0  1.267450600339273 1.091056105706913 0  0.114311143675241 0.65625 0  0.65625 1.37859278398136 0  2.170651243108527 0.4023187025489676 0  1.21875 1.380886352874642 0  0.3798992233573569 0.1593768045411093 0  0.9831420651531181 0.9956358347774316 0  1.456186685150796 0.4319140716985383 0  2.586721317152155 0.4269308613840649 0  2.863979293145301 1.178604739864835 0  1.658646098314701 0.8045749301224775 0  1.383553643956373 0.7098158224076794 0  0.154006438477797 1.138458423126247 0  2.856044831401163 0.5977865618779903 0  0.553876003596687 1.130313370813194 0  2.680231675041409 1.360526450748891 0  2.486056782242186 0.9722817331473952 0  1.891212003911469 0.3789027676568836 0  0.8138227412155181 0.37102502168449 0  1.064674644221452 1.192903489156071 0  0.6045358160041144 0.2320910326486189 0  1.194008126159845 0.4081242368041457 0  2.138311355076408 0.5770795769918613 0  0.134142636330111 0.2313017261983794 0  0.8460209454012837 0.8084258449188535 0  0.1293517554287885 0.4305045409359897 0  0.3205820557512212 1.373790064297892 0  0.2928933613730453 1.155196229839076 0  2.404969940572298 1.358123451328196 0  0.9933877375830629 0.5899302104012978 0  2.090287791367255 0.1211621925433303 0  2.904889173308855 0.28125 0  0.1246766077328953 1.375323392267105 0  2.302041695038792 0.7931069109810627 0  2.389228836127323 0.5648368411465005 0  1.886839219693261 1.174850198523801 0  1.96875 1.5 0  2.005259577028834 1.368575570359887 0  2.58746882374347 1.183267841227943 0  1.646515580921743 0.3486369169127919 0  1.980147904783248 0.5942137934419368 0  2.07740167257538 1.055304717195479 0  1.57300338334685 0.6065157750282059 0  1.59375 1.5 0  1.679678032322464 0.2100937046526968 0  2.252673654577562 0.9960348417811178 0  2.17832845930892 0.8178435559778986 0  1.78125 1.5 0  2.021596890434516 0.349571947542988 0  1.79926971381977 0.1752587163176004 0  0.503878860142697 0.3943984894172995 0  1.146622573165596 0.8060813049917908 0  3 1.40625 0  2.649807995179342 0.2020005420916801 0  0.3438742656237004 0.2790576170649142 0  1.546875 1.386334759531577 0  3 0.09375 0  1.320989371181643 0.9800954309611291 0  1.270074893254929 0.7536540780084714 0  2.70770359261854 0.4387759707667409 0  0.5606072232931772 1.296106034499297 0  0.7858104720553775 1.211812834033452 0  2.317237622700128 1.09958886094401 0  2.518665098961854 0.68166123334458 0  1.747777558052355 0.4158756118164814 0  1.683029275145126 1.069756268641544 0  0.46875 1.5 0  2.407758410849746 0.2048845882413086 0  2.396684507181482 1.235853070423643 0  1.919569286509587 0.7755948020085885 0  2.290752654053557 0.4002939182457882 0  0.2367853577638227 0.6856443876677092 0  1.644821718344275 1.219632237269969 0  0 1.03125 0  0.5821665354391095 0.7878606619613046 0  0.6422016866915001 0.674771619551397 0  0.2917070890414653 0.4458139506278615 0  0.7912018819596407 0 0  0.1045102716700244 1.249819735557644 0  1.151091219660612 0.9224858968529193 0  2.719174284445647 1.071883664029489 0  0.7216906855953001 0.918545393630683 0  0.2528020696803429 0.8787006417214202 0  1.726437981314609 0.9055659975386789 0  1.466273966174817 1.158744006060248 0  0.500278661176367 0.9948136517426003 0  1.114706325735654 0.2023659607018325 0  1.193213601931895 0.2926984867334158 0  0.9725372994821596 0.3724679154862157 0  2.214714190066689 0.1991474088029779 0  2.411776451427861 0.8179674328277735 0  1.997105232295531 1.153439169094244 0  0.497834479014996 1.390464488336983 0  0.4532232073331143 0.5868543641678674 0  0.4094710929462204 0.7215160819073434 0  0.2730945637736263 0.1927345247561336 0  2.091452909128697 0 0  1.88727127931541 0.9574017932976476 0  0.7331675361580886 0.4562359341911597 0  0.808798696301996 0.1107204599928528 0  2.794056136375906 0.2935548935723623 0  2.172174128810919 1.263645408055929 0  2.266351953173893 1.389929090293708 0  0.9205129738298803 1.252177379624563 0  2.58760749
[...]
<PointData  Vectors="f_60"> 
<DataArray  type="Float64"  Name="f_60"  NumberOfComponents="3" format="ascii">1.2513306509356168e-04 -4.9273428480437810e-04 0.0000000000000000e+00  3.3487133115306741e-04 3.0707280268828717e-05 0.0000000000000000e+00  3.0248201561382867e-04 5.1590704247090442e-04 0.0000000000000000e+00  2.0101266636517154e-04 4.9077047663878613e-04 0.0000000000000000e+00  -1.9162964572191782e-04 5.3040063074700411e-05 0.0000000000000000e+00  1.1960851794878871e-04 5.7989891079689745e-04 0.0000000000000000e+00  3.3792874909591082e-04 3.9464045610254026e-04 0.0000000000000000e+00  -5.0729792735231857e-05 2.2694555189812631e-04 0.0000000000000000e+00  2.3617288438645972e-04 4.5617327080872466e-04 0.0000000000000000e+00  3.4911394100889609e-04 1.7852534874075222e-04 0.0000000000000000e+00  1.3170876905721572e-04 3.0112825592855836e-04 0.0000000000000000e+00  3.0187008249134533e-04 5.5485981965420214e-04 0.0000000000000000e+00  9.0722563698365183e-05 4.0346479659607607e-04 0.0000000000000000e+00  3.7608702031917845e-05 1.7521150848827082e-04 0.0000000000000000e+00  -3.1785894891210086e-05 4.1520798701195064e-04 0.0000000000000000e+00  -2.2168593275715903e-04 5.2066906760557161e-04 0.0000000000000000e+00  -1.0161512362372223e-04 3.4868915286726286e-04 0.0000000000000000e+00  -4.6365636918185588e-04 3.5380125880007284e-04 0.0000000000000000e+00  -2.1971717916420346e-04 6.9550266328819517e-04 0.0000000000000000e+00  -1.0204703086063032e-04 5.1650948188623768e-04 0.0000000000000000e+00  -6.9782140126875900e-05 2.4028222561194029e-04 0.0000000000000000e+00  -1.4812112676069116e-04 4.2716469509171314e-04 0.0000000000000000e+00  1.7777319886365403e-04 3.8794244080639758e-04 0.0000000000000000e+00  3.4613604049312159e-04 1.9633508175656244e-04 0.0000000000000000e+00  -1.4667021163200790e-04 4.1059013303373394e-04 0.0000000000000000e+00  -2.4263751970412273e-04 5.7601510308163452e-04 0.0000000000000000e+00  -3.6244820082675103e-04 2.7701902462241184e-04 0.0000000000000000e+00  -2.8461339935882392e-04 4.9982016413555139e-04 0.0000000000000000e+00  -2.7314012638284160e-05 3.1632025352655146e-04 0.0000000000000000e+00  -4.5086272753333125e-05 3.4431453041180798e-04 0.0000000000000000e+00  -1.9126538159727332e-04 6.1667120435103800e-04 0.0000000000000000e+00  4.8213715637077174e-04 2.4255230614098595e-04 0.0000000000000000e+00  -3.2286173601215061e-04 5.0348220812299256e-04 0.0000000000000000e+00  -2.5903237918258661e-04 6.9515741708177012e-04 0.0000000000000000e+00  -2.5098926061698754e-04 1.0370441270664774e-04 0.0000000000000000e+00  -9.9925424999233847e-05 2.2581608202595525e-04 0.0000000000000000e+00  9.4373798604941467e-05 3.2700158633285786e-04 0.0000000000000000e+00  -2.1858257535419982e-04 5.5154287795644065e-04 0.0000000000000000e+00  6.7936525206190436e-05 4.5541653792163529e-04 0.0000000000000000e+00  2.6883017825623693e-04 3.2492397816594729e-04 0.0000000000000000e+00  1.2278944569386210e-05 6.1553707064667773e-04 0.0000000000000000e+00  3.3645743027320587e-04 5.3285110002674349e-04 0.0000000000000000e+00  2.3574835383646206e-04 5.4482792528365992e-04 0.0000000000000000e+00  2.1363167809493167e-04 3.0827378531398655e-04 0.0000000000000000e+00  -1.9034158153232982e-04 2.8802942183353666e-04 0.0000000000000000e+00  2.4235372662996803e-04 4.2228819722905399e-04 0.0000000000000000e+00  -6.7365326262164424e-05 1.5937766425550625e-04 0.0000000000000000e+00  -1.1051574816169135e-05 7.8107630901694074e-04 0.0000000000000000e+00  2.9139725416982705e-04 7.9614580687811483e-04 0.0000000000000000e+00  4.5245501930522278e-04 1.1546922964691714e-03 0.0000000000000000e+00  6.2896774372709003e-04 1.0149633758242068e-03 0.0000000000000000e+00  3.0383195909066318e-04 -1.4352287984763695e-05 0.0000000000000000e+00  2.6223652220795261e-04 -4.5082738351504834e-05 0.0000000000000000e+00  3.0675437061544752e-05 -1.7047646629070527e-04 0.0000000000000000e+00  -2.5402419299078903e-04 1.5552805380546998e-03 0.0000000000000000e+00  1.0961951150053242e-03 7.8602402830542731e-04 0.0000000000000000e+00  -1.2109833353930240e-02 -7.4398670175199991e-05 0.0000000000000000e+00  -5.5930193881263489e-05 1.3595489121411089e-03 0.0000000000000000e+00  -5.5830711062940407e-06 2.0190588580256695e-05 0.0000000000000000e+00  -4.0108398624621833e-05 -5.4828295275552972e-04 0.0000000000000000e+00  -1.3007353210699793e-05 4.6675832914058223e-05 0.0000000000000000e+00  5.3005468748523305e-05 2.0097601839918315e-04 0.0000000000000000e+00  -1.7843310557969401e-05 -2.6948876517460989e-04 0.0000000000000000e+00  -3.8140993383328040e-05 -2.2047313621828614e-04 0.0000000000000000e+00  4.4755608223417481e-04 -3.4306338982375318e-05 0.0000000000000000e+00  7.9539264550291741e-03 8.1207648597329962e-01 0.0000000000000000e+00  6.4150974941225318e-03 -4.8522691078977942e-01 0.0000000000000000e+00  -1.1030934817031709e-02 9.9334642928392680e-01 0.0000000000000000e+00  1.1829692911805512e-02 2.4249884814475803e-01 0.0000000000000000e+00  -3.9680911451717030e-04 -4.4613627789074397e-04 0.0000000000000000e+00  1.1823479713491672e-03 -4.1415093282469452e-05 0.0000000000000000e+00  7.3012530668320320e-05 -3.0436490665804807e-04 0.0000000000000000e+00  -1.0804176107214618e-02 -8.0181245048822389e-02 0.0000000000000000e+00  -6.0062248240730864e-04 -4.7554634192177418e-04 0.0000000000000000e+00  -8.3371843279948029e-06 1.4442658486001894e-05 0.0000000000000000e+00  1.5445327829329050e-01 7.5191366332614917e-01 0.0000000000000000e+00  3.1980157563216038e-02 -5.5421558837639773e-01 0.0000000000000000e+00  -2.8280854929723032e-02 5.2284530493294379e-01 0.0000000000000000e+00  3.9238487462659886e-04 -4.5581620594848158e-04 0.0000000000000000e+00  -1.5766057745189379e-02 -5.5978773014270722e-01 0.0000000000000000e+00  -3.7298873917668465e-02 3.7649133813454888e-01 0.0000000000000000e+00  -3.0233045210306642e-04 3.1119243774275937e-05 0.0000000000000000e+00  -1.9635015515484253e-03 -5.1275791264893222e-01 0.0000000000000000e+00  1.8544076811376164e-02 6.9273446660896543e-01 0.0000000000000000e+00  4.0663440690155574e-02 6.8308410148109744e-01 0.0000000000000000e+00  -1.2968563750584636e-01 1.1676693571489185e+00 0.0000000000000000e+00  3.0853082724231237e-03 4.4586926441208369e-01 0.0000000000000000e+00  1.1640717867138124e-01 1.1803341883111256e+00 0.0000000000000000e+00  2.5867954369942683e-02 -4.5698988717505595e-01 0.0000000000000000e+00  4.9640460002716019e-02 5.8081391492691126e-01 0.0000000000000000e+00  -1.5735515308022363e-01 6.1410120682403058e-01 0.0000000000000000e+00  7.9005741789341596e-03 6.7663512668261161e-01 0.0000000000000000e+00  1.6588557148556331e-03 -5.8237196282301951e-01 0.0000000000000000e+00  4.8722987011393850e-03 7.0725179674273941e-01 0.0000000000000000e+00  3.3757504474727074e-01 1.0638166076962488e+00 0.0000000000000000e+00  -3.5322421518564615e-02 1.4030964153979750e-01 0.0000000000000000e+00  -3.6413933901526196e-02 7.4504838944670460e-01 0.0000000000000000e+00  -3.4797838268109185e-02 -3.5757225194125317e-02 0.0000000000000000e+00  2.6176015281441933e-02 1.3766024947051972e-01 0.0000000000000000e+00  2.1991322618332177e-06 2.6368912898940953e-05 0.0000000000000000e+00  -3.1629158590572154e-01 1.0559681453919423e+00 0.0000000000000000e+00  -2.1274871999069318e-02 6.8086476277298047e-01 0.0000000000000000e+00  2.0060541092729097e-04 1.2820574643663210e-01 0.0000000000000000e+00  -3.6281111469298709e-03 -4.5136673512981579e-01 0.0000000000000000e+00  -1.4487201398138284e-03 2.8689579655353747e-01 0.0000000000000000e+00  -2.0177575211833287e-02 5.7211659071097343e-01 0.0000000000000000e+00  2.8141661657829237e-03 -5.9207840763328901e-01 0.0000000000000000e+00  -8.1496143077797414e-02 7.6852472614279110e-01 0.0000000000000000e+00  2.7200550382652067e-02 -6.5577477500161996e-01 0.0000000000000000e+00  -4.0082823391583136e-03 9.3120367687074340e-05 0.0000000000000000e+00  -1.2302006316616347e-02 6.3048043496163364e-01 0.0000000000000000e+00  1.9577884077727821e-02 -6.0421095112631584e-01 0.0000000000000000e+00  4.5610961287988465e-02 9.0035275140517013e-02 0.0000000000000000e+00  5.3634389694771495e-02 -7.0668015970341858e-01 0.0000000000000000e+00  1.6209739637601375e-02 -1.8262149387193077e-01 0.0000000000000000e+00  -1.3958939416474404e-02 6.7341021728288875e-01 0.0000000000000000e+00  2.8095870460754860e-02 -5.6280252958294175e-01 0.0000000000000000e+00  2.6703306740139238e-01 -5.5320216096652186e-01 0.0000000000000000e+00  1.1649832587439272e-01 -4.9093141021182141e-01 0.0000000000000000e+00  6.6661563159749762e-02 6.5942443477471968e-01 0.0000000000000000e+00  1.9699097369959302e-02 -2.3004164494387175e-01 0.0000000000000000e+00  1.4120052806668010e-03 6.6923738960838398e-05 0.0000000000000000e+00  3.7645113299477408e-04 -3.0769742175995054e-04 0.0000000000000000e+00  -6.3807385555646037e-02 -5.3057561786878049e-01 0.0000000000000000e+00  -3.6913492904396009e-02 -6.9894582238517311e-01 0.0000000000000000e+00  6.0338077922977333e-05 -2.5845722389203563e-04 0.0000000000000000e+00  -3.7764892747471558e-02 -5.4686106521287703e-01 0.0000000000000000e+00  -8.5720617671694119e-03 3.1799023251293557e-01 0.0000000000000000e+00  -1.5816495765812150e-02 -2.3615779297958436e-02 0.0000000000000000e+00  -2.7942203420279341e-04 -1.6380232888321827e-04 0.0000000000000000e+00  -6.3776474174739167e-04 4.6559014142946454e-04 0.0000000000000000e+00  1.1619499071005204e-02 7.2519173682674287e-01 0.0000000000000000e+00  -6.0474586625023389e-03 7.0135127386458218e-01 0.0000000000000000e+00  2.5706146933864481e-02 -3.8889119800227928e-01 0.0000000000000000e+00  8.4873122608801303e-03 3.4412278067643809e-01 0.0000000000000000e+00  1.2477664984771543e-03 -4.4191810456655750e-01 0.0000000000000000e+00  2.1470915034811286e-03 -5.5107942819333700e-01 0.0000000000000000e+00  7.8882438014507930e-04 3.2580944572601682e-06 0.0000000000000000e+00  2.4463297407579238e-01 -1.2936670971549968e-01 0.0000000000000000e+00  1.8779886887847611e-02 -2.7584701833040098e-01 0.0000000000000000e+00  -3.9471345948444538e-04 -5.7531412160763515e-04 0.0000000000000000e+00  4.1692308741314772e-04 -4.7061751349166130e-04 0.0000000000000000e+00  1.9651659561294887e-04 -1.9561581694653633e-04 0.0000000000000000e+00  -4.7037156939545730e-04 -6.0752702669092113e-04 0.0000000000000000e+00  -1.2559664583330926e-04 -1.4401259871154050e-04 0.0000000000000000e+00  -4.5974248200754826e-06 -3.8655413614649695e-06 0.0000000000000000e+00  1.1623213746511083e-05 -3.5538457078205225e-05 0.0000000000000000e+00  3.5430970264784981e-04 -6.4256894379127619e-04 0.0000000000000000e+00  7.7017102427649323e-02 -1.7861647202563991e-01 0.0000000000000000e+00  -9.6084490270656169e-03 -3.2311530557646090e-01 0.0000000000000000e+00  -7.3575931991326046e-02 2.6191246669782231e-02 0.0000000000000000e+00  4.8366576629471782e-02 -2.9518462742555235e-01 0.0000000000000000e+00  2.7399246019621609e-02 -7.7124209119589782e-02 0.0000000000000000e+00  1.0624340269416071e-03 2.9710167214283621e-04 0.0000000000000000e+00  -5.7368697383055778e-01 -1.9500467837028268e-01 0.0000000000000000e+00  -1.1878901187335883e-01 -2.4787353944351881e-01 0.0000000000000000e+00  1.8570319046945255e-02 -5.6292756928642962e-01 0.0000000000000000e+00  -5.8920085318876235e-02 -6.6401183227031424e-01 0.0000000000000000e+00  -2.8732331215363877e-01 -1.4623708489789455e-01 0.0000000000000000e+00  -5.2046412307837622e-03 1.3481911079603498e-01 0.0000000000000000e+00  -9.7143916141767844e-02 -3.1931447090778098e-01 0.0000000000000000e+00  1.8513940556774447e-01 -2.4637441351464690e-02 0.0000000000000000e+00  -3.4241816276748951e-02 -4.3173900134619536e-01 0.0000000000000000e+00  3.0205267840716740e-02 5.3866733054718907e-01 0.0000000000000000e+00  -2.8718815171924008e-02 -6.6024714013973473e-01 0.0000000000000000e+00  1.1382342197679094e-02 7.6595334208832278e-01 0.0000000000000000e+00  -2.8460140362729652e-01 -5.2151390746623949e-01 0.0000000000000000e+00  -2.2282727861207274e-02 -7.0531411264192445e-01 0.0000000000000000e+00  -1.3736704005982339e-02 6.0624473336736362e-01 0.0000000000000000e+00  1.0755125790872547e-02 -3.5726019648578072e-01 0.0000000000000000e+00  1.7030401465026979e-02 -5.4151925583419092e-01 0.0000000000000000e+00  4.5372830172223259e-02 -3.1540561646381643e-01 0.0000000000000000e+00  5.7591964356250813e-01 -2.4090337899791461e-01 0.0000000000000000e+00  2.7086892552346319e-02 6.2842333437296061e-01 0.0000000000000000e+00  4.0079301538665452e-03 -7.7486825694499828e-01 0.0000000000000000e+00  1.8946806354478336e-02 3.7463379034191746e-01 0.0000000000000000e+00  -7.6912632793165398e-03 1.3437935333741940e-01 0.0000000000000000e+00  -1.8590622257190506e-04 6.7358358202344626e-01 0.0000000000000000e+00  -3.4589639500008148e-03 1.8697553149800067e-01 0.0000000000000000e+00  -2.8479684601194909e-03 3.9076231444370091e-01 0.0000000000000000e+00  1.3448390217300077e-01 3.1176266362193994e-01 0.0000000000000000e+00  -9.7806158332784068e-02 -9.6115878916471761e-02 0.0000000000000000e+00  1.1478935140698011e-01 -1.4737688359606643e-01 0.0000000000000000e+00  -5.7815276658629237e-03 4.0669902757202225e-01 0.0000000000000000e+00  -1.8560382515320186e-02 1.3024805202646841e-01 0.0000000000000000e+00  8.1415876262760385e-03 -5.7458961603351089e-01 0.0000000000000000e+00  3.5203486104965750e-05 2.5062831539908492e-01 0.0000000000000000e+00  -7.2347641509688976e-02 1.8766786607118910e-01 0.0000000000000000e+00  -3.0007891109798266e-02 6.1566687513123752e-01 0.0000000000000000e+00  4.3171546812619350e-03 -9.2352943495845718e-02 0.0000000000000000e+00  -1.2790958749060685e-02 -1.2262724043013697e-01 0.0000000000000000e+00  8.7313641877618132e-03 4.6632562058866239e-01 0.0000000000000000e+00  -1.9528831555703730e-01 -1.9749294858887476e-01 0.0000000000000000e+00  4.0443189481692210e-01 -1.9437232567825627e-01 0.0000000000000000e+00  4.6911141852971515e-03 -6.7676309316107242e-01 0.0000000000000000e+00  7.3161476808123946e-03 -5.4149257586379484e-01 0.0000000000000000e+00  -9.4451297445833967e-03 -7.6562094352605792e-01 0.0000000000000000e+00  -1.2773887957587912e-01 -1.3884929417039324e-01 0.0000000000000000e+00  -2.5057317677182837e-02 4.1352203483058914e-01 0.0000000000000000e+00  3.8704358429126046e-01 7.8591983212873129e-01 0.0000000000000000e+00  1.1096250181490686e-01 1.2955007858234094e-01 0.0000000000000000e+00  -3.3794259012137597e-02 -1.8372278082414956e-01 0.0000000000000000e+00  1.9296582078582921e-02 -1.8518927710009844e-01 0.0000000000000000e+00  -3.3828303914946595e-02 -6.9878664745252295e-01 0.0000000000000000e+00  3.5770154629438604e-02 6.8087202453551177e-01 0.0000000000000000e+00  2.4397975806389024e-02 7.4459139134914776e-01 0.0000000000000000e+00  -3.1087960617978704e-02 6.5592259214582782e-01 0.0000000000000000e+00  3.3410557321361632e-02 -6.4846863439332880e-01 0.0000000000000000e+00  3.5294464674630352e-03 3.1294699816696253e-01 0.0000000000000000e+00  2.0146698182111580e-02 -6.8006702345545755e-01 0.0000000000000000e+00  -1.8565972882624168e-02 6.0964887879795360e-01 0.0000000000000000e+00  -1.9743093904301758e-02 7.1292405440425599e-01 0.0000000000000000e+00  1.9168912628415236e-01 7.7651245356466836e-01 0.0000000000000000e+00  1.5561241173201637e-02 -2.7194525579050999e-01 0.0000000000000000e+00  -5.3249871656619596e-02 6.7702090397082459e-01 0.0000000000000000e+00  -4.8321306255463831e-01 3.3637080656571516e-01 0.0000000000000000e+00  5.1973096060423662e-03 -5.9185852735310207e-01 0.0000000000000000e+00  1.8579172531858316e-02 -1.3621999527503578e-01 0.0000000000000000e+00  -6.5926743237138860e-02 9.6102709881942361e-01 0.0000000000000000e+00  2.1404097926161873e-02 -1.2204158827781686e-01 0.0000000000000000e+00  9.4233036389896363e-05 -2.4097204352647745e-04 0.0000000000000000e+00  -1.7714724233796282e-02 -2.5724855911394406e-01 0.0000000000000000e+00  2.4824164935904400e-01 -2.9015040715837309e-01 0.0000000000000000e+00  -1.0330397454889385e-02 -7.0348847547755688e-01 0.0000000000000000e+00  -1.5970176739827362e-02 -4.9294829176977173e-01 0.0000000000000000e+00  4.6925970293449595e-02 7.6314499800203928e-01 0.0000000000000000e+00  3.7099746994064872e-03 7.3739570636421031e-02 0.0000000000000000e+00  8.9447600043108191e-05 -4.1861689545539979e-04 0.0000000000000000e+00  6.1719675418414428e-03 -5.4643229993742937e-01 0.0000000000000000e+00  6.7726267652810743e-02 -5.7269093493895362e-01 0.0000000000000000e+00  2.0090543629703934e-02 1.1694893667434603e-01 0.0000000000000000e+00  -2.6587880180359036e-04 -5.7212153437853001e-04 0.0000000000000000e+00  -5.2501807656581273e-02 3.9267142524445069e-02 0.0000000000000000e+00  -3.4216805460097352e-02 7.0074493893468492e-01 0.0000000000000000e+00  3.7922522309499301e-02 -3.4431912801641390e-01 0.0000000000000000e+00  2.9109881384888087e-03 3.3460918788216293e-01 0.0000000000000000e+00  1.7179067469157399e-03 7.2599952729274109e-05 0.0000000000000000e+00  -3.6868424357889162e-01 6.3518399561463135e-01 0.0000000000000000e+00  5.1600576677427908e-02 4.3616405215760778e-01 0.0000000000000000e+00  2.7601279366570537e-02 3.7548726246179598e-01 0.0000000000000000e+00  -7.4813662243832686e-03 -3.5846712772003536e-03 0.0000000000000000e+00  -7.6586094064457627e-03 -5.8867739565347599e-01 0.0000000000000000e+00  6.0629825539452523e-03 9.7251610572347380e-02 0.0000000000000000e+00  -2.2627750457310564e-01 1.1406495495319964e+00 0.0000000000000000e+00  -5.4035628589610120e-02 4.9258732232627234e-01 0.0000000000000000e+00  -3.8312299854549710e-02 -5.3924082239562132e-01 0.0000000000000000e+00  1.0771220517996254e-01 3.0111382151389820e-02 0.0000000000000000e+00  -3.0773546982557180e-02 -2.6276783148667548e-01 0.0000000000000000e+00  -1.3244311797859091e-02 3.8955980444084976e-01 0.0000000000000000e+00  2.5694587363070303e-03 -5.2827609141746734e-01 0.0000000000000000e+00  2.4836260861441117e-04 -3.0663134360393727e-04 0.0000000000000000e+00  -1.8491877624865977e-01 7.9252984458473297e-01 0.0000000000000000e+00  1.6462001284339919e-01 8.7848804466681063e-01 0.0000000000000000e+00  5.6318854781211569e-03 -4.9782964293490262e-01 0.0000000000000000e+00  -9.9780570983414668e-02 -3.1725944270863637e-01 0.0000000000000000e+00  1.2436636917347869e-02 1.5365458732517720e-01 0.0000000000000000e+00  -9.5136569180230834e-03 -7.0642556448982941e-01 0.0000000000000000e+00  -1.0771643238122332e-05 1.9045803689783372e-05 0.0000000000000000e+00  7.1106135454068187e-03 6.7616173690152748e-01 0.0000000000000000e+00  1.4706968546287171e-02 4.6023038898746643e-01 0.0000000000000000e+00  3.1953524759705559e-02 7.1475770565049013e-01 0.0000000000000000e+00  4.6528293933372676e-04 5.1252688634951648e-04 0.0000000000000000e+00  -9.7784702449513570e-03 -4.5087713456895917e-01 0.0000000000000000e+00  -6.0474498754915177e-03 3.9585782227458499e-01 0.0000000000000000e+00  2.4907011991253708e-01 1.1185872090118976e+00 0.0000000000000000e+00  -4.2613262564052514e-03 -6.1984794830905410e-01 0.0000000000000000e+00  1.7877819559318755e-03 3.7880790657255109e-01 0.0000000000000000e+00  7.2374698983757929e-03 7.8395442409369062e-02 0.0000000000000000e+00  -1.8464817387483057e-02 5.8602544012802427e-01 0.0000000000000000e+00  -9.3013623464555904e-03 -3.7964010032608014e-01 0.0000000000000000e+00  7.9589036712109901e-02 -1.3379651461523051e-01 0.0000000000000000e+00  3.7346728944285666e-02 7.3922233259035008e-01 0.0000000000000000e+00  1.7422286043574882e-02 4.7132390644927191e-02 0.0000000000000000e+00  -1.3488745487488407e-01 -4.4218139194954165e-01 0.0000000000000000e+00  3.5561120523568426e-02 9.8247383037148128e-01 0.0000000000000000e+00  3.7893052268439781e-02 -3.4034058054219957e-01 0.0000000000000000e+00  -1.2171849920200843e-01 -3.5201769571262581e-01 0.0000000000000000e+00  2.3431432178015237e-02 -7.5689586177020940e-01 0.0000000000000000e+00  1.3551488308124832e-02 -5.0695170166721404e-01 0.0000000000000000e+00  1.0340097523747820e-01 5.7845250207728882e-01 0.0000000000000000e+00  -1.4733212520903963e-04 2.3174777074294725e