<?xml version="1.0"?>
<VTKFile type="UnstructuredGrid"  version="0.1"  >
<UnstructuredGrid>
<Piece  NumberOfPoints="5089" NumberOfCells="9865">
<Points>
<DataArray  type="Float64"  NumberOfComponents="3"  format="ascii">0 1.5 0  0 0 0  0.1029058182573948 0 0  0.1029058182573948 0.02393156642875577 0  0.1251489251828899 0.06631226582407952 0  0.1645395112957465 0.09350162426854149 0  0.2120536680255323 0.0992708874098054 0  0.2568064746731156 0.08229838658936564 0  0.288545602565321 0.04647231720437685 0  0.3 0 0  0.51 0 0  0.5220577136594005 0.04499999999999999 0  0.555 0.07794228634059948 0  0.6 0.09 0  0.645 0.07794228634059946 0  0.6779422863405995 0.04499999999999999 0  0.6899999999999999 0 0  0.8924037639192813 0 0  0.8924037639192813 0.02287028598995353 0  0.9110081306187559 0.06465637775217206 0  0.9450000000000001 0.09526279441628825 0  0.9885018690405581 0.1093974084905101 0  1.033991869381244 0.1046162167924669 0  1.073604366699474 0.08174593080251337 0  1.100490000340686 0.04474103073833802 0  1.11 0 0  1.502905818257395 0 0  1.502905818257395 0.02393156642875577 0  1.52514892518289 0.06631226582407952 0  1.564539511295747 0.09350162426854149 0  1.612053668025532 0.0992708874098054 0  1.656806474673116 0.08229838658936564 0  1.688545602565321 0.04647231720437685 0  1.7 0 0  1.82324056211084 0 0  1.82324056211084 0.02253860454731437 0  1.847611141284377 0.06045996594834066 0  1.888614812938137 0.07918571535047463 0  1.933233201040151 0.07277055962836147 0  1.967300282626494 0.0432512653964478 0  1.98 0 0  2.202905818257395 0 0  2.202905818257395 0.02393156642875577 0  2.22514892518289 0.06631226582407952 0  2.264539511295746 0.09350162426854149 0  2.312053668025532 0.0992708874098054 0  2.356806474673115 0.08229838658936564 0  2.388545602565321 0.04647231720437685 0  2.4 0 0  2.51 0 0  2.522057713659401 0.04499999999999999 0  2.555 0.07794228634059948 0  2.6 0.09 0  2.645 0.07794228634059946 0  2.677942286340599 0.04499999999999999 0  2.69 0 0  3 0 0  3 1.5 0  0 0.75 0  1.5 1.5 0  0 0.375 0  0 0.1875 0  0.75 1.5 0  2.25 1.5 0  3 0.75 0  1.803364316093307 0.8194216192460635 0  0.7085714285714286 0.7914285714285714 0  2.396697907928333 0.698796196655595 0  1.26039230397729 0.6323879781298929 0  1.125 1.5 0  3 1.125 0  0.375 1.5 0  1.418284719659703 1.05567510076647 0  2.625 1.5 0  0 1.125 0  2.4375 1.120298797465005 0  0.4140309460188812 0.4815551607069073 0  0.9375 1.133540466589862 0  1.875 1.5 0  0.4143011358073044 1.085698864192695 0  2.042557228405723 0.4764057674039468 0  3 0.375 0  1.615235786026768 0.4839120951620492 0  0.9172436665953028 0.4786128535408891 0  2.136144598898015 0.9367443054342734 0  2.712089662802327 0.5625 0  1.752709466448716 1.168812671476193 0  2.696461986964791 0.9012929362807449 0  1.307422665144653 0.3094324321200764 0  2.0625 1.24476578117044 0  2.446405755792607 0.3860402512509704 0  0.3158723471199726 0.7836709721106835 0  1.018921994797561 0.831404696897531 0  1.521099871135537 0.7571953762650785 0  2.718190509848388 1.189592528269884 0  0.665307193508031 1.225469494285917 0  1.199897701782483 1.230481185797768 0  0.2233959957266646 1.276604004273335 0  0.6649397520368477 0.3607836886074089 0  0 0.5625 0  2.685543358160364 0.3192521589045413 0  1.775621962986754 0.2975552026784072 0  2.025654700292002 0.7195245521041802 0  0.1961827192748887 0.9897295638426992 0  1.25729921569077 0.8746334216075233 0  1.534142212444284 1.264044413891354 0  1.624439414641745 0.9597398592303362 0  2.117668421489377 0.2641528949307972 0  1.945094170902585 1.053880768096555 0  3 0.1875 0  0.6251639682912251 1.002291403912492 0  0.719601375969486 0.5727782913443102 0  0.2313942916225519 0.3335511938861402 0  0.4687668770508729 0.274248243200137 0  0.5143238740412669 0.6811446824633056 0  1.829350286632844 0.5059917594077202 0  1.082379929992235 0.3249418149194327 0  2.540679850598416 1.305492850437689 0  2.282283153018704 1.279796495628565 0  2.355666841619378 0.9154942188580675 0  0.2114722061938988 0.5448236655965607 0  3 1.3125 0  2.8125 1.5 0  2.263750685400308 0.5173381079832993 0  0.4343085727049624 1.296611441170993 0  1.6875 1.5 0  1.016037518489582 1.324553740130353 0  0.846292314151325 0.9469220663180872 0  1.122827752751251 1.035495517001457 0  1.3125 1.5 0  1.306452909128697 0 0  0.8906638629565067 0.6773217378320744 0  1.517175933126145 0.2981487507037606 0  0.7996957920902151 0.2224603600775558 0  1.446370464174038 0.5785990786868803 0  1.689965192988266 0.6625083927402473 0  0.4864273298880485 0.870473805626289 0  3 0.9375 0  2.831315819563651 1.036097903808422 0  1.106384347284952 0.5163011422226527 0  0.5625 1.5 0  0.9375 1.5 0  0.1875 1.5 0  2.0625 1.5 0  3 0.5625 0  0 0.9375 0  0 1.3125 0  2.4375 1.5 0  2.196044825237544 1.113880351688974 0  2.210431846521007 0.695834380790271 0  0.8262236946704767 1.326155809103077 0  2.523003751809735 0.8349453583788917 0  1.882533682486712 1.30904671408086 0  2.845 0 0  2.813607095438526 0.1837681344374856 0  2.298597604800397 0.280431891689246 0  1.972062138207083 0.8834951655964545 0  1.943392101370151 0.2475417334111557 0  2.828663592588797 0.4267055109367558 0  2.803791026183859 0.7364868569598708 0  2.523250359922468 0.5585816735541729 0  2.602935827188279 1.053310414780935 0  1.692458045540587 1.328962813001376 0  1.232271555781778 0.154950218767993 0  1.36985844680238 1.21899526865025 0  1.785321775315372 1.004919979330962 0  2.534633602602767 0.2439507161942105 0  0.7651985499724481 1.092302611968735 0  2.637828969450683 0.71279922663893 0  1.100469689258933 0.6843495375675052 0  1.315800235513153 0.4755545830105288 0  1.405546076805209 0.1782543944119986 0  2.826282129872177 1.326282129872177 0  0.575884497984488 0.4967904868667201 0  0.1516233666565383 0.826056857120972 0  0.3483704262380678 0.6272257636119053 0  1.568331672486121 1.108640197801574 0  1.475101554186818 0.9082985267599337 0  1.868470483419324 0.6670273102604994 0  0.3467545185571825 0.9433646607171683 0  2.15625 1.373787484318285 0  1.41742615593433 1.367603819494743 0  2.854904919456998 0.8828609574219635 0  0.9476741986655126 0.255395459587152 0  1.267450600339273 1.091056105706913 0  0.114311143675241 0.65625 0  0.65625 1.37859278398136 0  2.170651243108527 0.4023187025489676 0  1.21875 1.380886352874642 0  0.3798992233573569 0.1593768045411093 0  0.9831420651531181 0.9956358347774316 0  1.456186685150796 0.4319140716985383 0  2.586721317152155 0.4269308613840649 0  2.863979293145301 1.178604739864835 0  1.658646098314701 0.8045749301224775 0  1.383553643956373 0.7098158224076794 0  0.154006438477797 1.138458423126247 0  2.856044831401163 0.5977865618779903 0  0.553876003596687 1.130313370813194 0  2.680231675041409 1.360526450748891 0  2.486056782242186 0.9722817331473952 0  1.891212003911469 0.3789027676568836 0  0.8138227412155181 0.37102502168449 0  1.064674644221452 1.192903489156071 0  0.6045358160041144 0.2320910326486189 0  1.194008126159845 0.4081242368041457 0  2.138311355076408 0.5770795769918613 0  0.134142636330111 0.2313017261983794 0  0.8460209454012837 0.8084258449188535 0  0.1293517554287885 0.4305045409359897 0  0.3205820557512212 1.373790064297892 0  0.2928933613730453 1.155196229839076 0  2.404969940572298 1.358123451328196 0  0.9933877375830629 0.5899302104012978 0  2.090287791367255 0.1211621925433303 0  2.904889173308855 0.28125 0  0.1246766077328953 1.375323392267105 0  2.302041695038792 0.7931069109810627 0  2.389228836127323 0.5648368411465005 0  1.886839219693261 1.174850198523801 0  1.96875 1.5 0  2.005259577028834 1.368575570359887 0  2.58746882374347 1.183267841227943 0  1.646515580921743 0.3486369169127919 0  1.980147904783248 0.5942137934419368 0  2.07740167257538 1.055304717195479 0  1.57300338334685 0.6065157750282059 0  1.59375 1.5 0  1.679678032322464 0.2100937046526968 0  2.252673654577562 0.9960348417811178 0  2.17832845930892 0.8178435559778986 0  1.78125 1.5 0  2.021596890434516 0.349571947542988 0  1.79926971381977 0.1752587163176004 0  0.503878860142697 0.3943984894172995 0  1.146622573165596 0.8060813049917908 0  3 1.40625 0  2.649807995179342 0.2020005420916801 0  0.3438742656237004 0.2790576170649142 0  1.546875 1.386334759531577 0  3 0.09375 0  1.320989371181643 0.9800954309611291 0  1.270074893254929 0.7536540780084714 0  2.70770359261854 0.4387759707667409 0  0.5606072232931772 1.296106034499297 0  0.7858104720553775 1.211812834033452 0  2.317237622700128 1.09958886094401 0  2.518665098961854 0.68166123334458 0  1.747777558052355 0.4158756118164814 0  1.683029275145126 1.069756268641544 0  0.46875 1.5 0  2.407758410849746 0.2048845882413086 0  2.396684507181482 1.235853070423643 0  1.919569286509587 0.7755948020085885 0  2.290752654053557 0.4002939182457882 0  0.2367853577638227 0.6856443876677092 0  1.644821718344275 1.219632237269969 0  0 1.03125 0  0.5821665354391095 0.7878606619613046 0  0.6422016866915001 0.674771619551397 0  0.2917070890414653 0.4458139506278615 0  0.7912018819596407 0 0  0.1045102716700244 1.249819735557644 0  1.151091219660612 0.9224858968529193 0  2.719174284445647 1.071883664029489 0  0.7216906855953001 0.918545393630683 0  0.2528020696803429 0.8787006417214202 0  1.726437981314609 0.9055659975386789 0  1.466273966174817 1.158744006060248 0  0.500278661176367 0.9948136517426003 0  1.114706325735654 0.2023659607018325 0  1.193213601931895 0.2926984867334158 0  0.9725372994821596 0.3724679154862157 0  2.214714190066689 0.1991474088029779 0  2.411776451427861 0.8179674328277735 0  1.997105232295531 1.153439169094244 0  0.497834479014996 1.390464488336983 0  0.4532232073331143 0.5868543641678674 0  0.4094710929462204 0.7215160819073434 0  0.2730945637736263 0.1927345247561336 0  2.091452909128697 0 0  1.88727127931541 0.9574017932976476 0  0.7331675361580886 0.4562359341911597 0  0.808798696301996 0.1107204599928528 0  2.794056136375906 0.2935548935723623 0  2.172174128810919 1.263645408055929 0  2.266351953173893 1.389929090293708 0  0.9205129738298803 1.252177379624563 0  2.58760749
[...]
<PointData  Vectors="f_60"> 
<DataArray  type="Float64"  Name="f_60"  NumberOfComponents="3" format="ascii">1.4057339022459625e-04 -5.5373413246009493e-04 0.0000000000000000e+00  3.2195983651998167e-04 1.8687313536262365e-05 0.0000000000000000e+00  3.1070685706255082e-04 5.6114006471001373e-04 0.0000000000000000e+00  2.2713845235340364e-04 5.6545820483701228e-04 0.0000000000000000e+00  -1.9918552799092127e-04 8.2153186548451760e-05 0.0000000000000000e+00  1.1036079332373656e-04 6.3523119283343356e-04 0.0000000000000000e+00  3.3946109213027362e-04 4.6823375126046364e-04 0.0000000000000000e+00  -5.3333569589529594e-05 2.9339013589282833e-04 0.0000000000000000e+00  3.0188603701683417e-04 5.6035224291058343e-04 0.0000000000000000e+00  3.7136654498230102e-04 1.8660398391797249e-04 0.0000000000000000e+00  1.5137615383628385e-04 3.2235695951626173e-04 0.0000000000000000e+00  3.5119097274816428e-04 6.1808642714351674e-04 0.0000000000000000e+00  6.2359673469573217e-05 4.7532626552920511e-04 0.0000000000000000e+00  4.2269610561674656e-05 2.2214829922978724e-04 0.0000000000000000e+00  -1.9727163560838133e-06 4.8098783296818054e-04 0.0000000000000000e+00  -2.6065584562820964e-04 5.7769501052736514e-04 0.0000000000000000e+00  -1.3092440948839741e-04 3.7885295194684741e-04 0.0000000000000000e+00  -4.9653775271600511e-04 3.6259875935743815e-04 0.0000000000000000e+00  -2.2684506030370825e-04 8.0823572963403226e-04 0.0000000000000000e+00  -1.4226035107187625e-04 6.0296195820958238e-04 0.0000000000000000e+00  -8.1352290119234900e-05 2.8322334004591599e-04 0.0000000000000000e+00  -1.3350646380277625e-04 5.1282983871026803e-04 0.0000000000000000e+00  1.9917109222553170e-04 4.3729828375836308e-04 0.0000000000000000e+00  3.6497000843124127e-04 2.3865526842539812e-04 0.0000000000000000e+00  -1.9144255054589281e-04 5.1015043089354243e-04 0.0000000000000000e+00  -3.2563556686899040e-04 6.7049927228842159e-04 0.0000000000000000e+00  -3.7056082832353403e-04 2.9660429667496016e-04 0.0000000000000000e+00  -3.1946588868153510e-04 5.8069625903442131e-04 0.0000000000000000e+00  -6.6835247010856694e-05 3.8544368944912129e-04 0.0000000000000000e+00  -2.2796651918063749e-05 4.3703286607155639e-04 0.0000000000000000e+00  -2.0860670793081698e-04 6.9350621932847052e-04 0.0000000000000000e+00  5.3086503911315916e-04 2.7290635526034372e-04 0.0000000000000000e+00  -4.0657666518784769e-04 6.4145281868067396e-04 0.0000000000000000e+00  -2.7926311345584907e-04 7.8300138845531584e-04 0.0000000000000000e+00  -2.3541761907546797e-04 9.5792229850970932e-05 0.0000000000000000e+00  -1.0351223919220228e-04 2.5799657914266739e-04 0.0000000000000000e+00  1.0069507987092896e-04 4.1060923294478405e-04 0.0000000000000000e+00  -2.2250688640690369e-04 6.4508878521862356e-04 0.0000000000000000e+00  6.8029032187047185e-05 5.1086003974710841e-04 0.0000000000000000e+00  2.8002946684264440e-04 3.9840923435329763e-04 0.0000000000000000e+00  -3.4561782299695336e-05 7.1559412072891586e-04 0.0000000000000000e+00  3.6070686516025835e-04 6.0950551664208977e-04 0.0000000000000000e+00  2.7005988408173448e-04 6.5878231983059583e-04 0.0000000000000000e+00  2.5325034214858643e-04 4.0387317471621932e-04 0.0000000000000000e+00  -1.7779381290943650e-04 3.3754804918113482e-04 0.0000000000000000e+00  2.1482896099706499e-04 4.9666023792564740e-04 0.0000000000000000e+00  -5.5689231510732976e-05 1.8946059189872271e-04 0.0000000000000000e+00  -1.8664605188975820e-05 9.5972169979570757e-04 0.0000000000000000e+00  3.3337556704122388e-04 9.5557666154291059e-04 0.0000000000000000e+00  5.4648906965144492e-04 1.3095506328295390e-03 0.0000000000000000e+00  7.2714994395054583e-04 1.1877128213502650e-03 0.0000000000000000e+00  3.8673438295461167e-04 4.2222371912533441e-05 0.0000000000000000e+00  3.0795640179155962e-04 -5.7012079239534160e-05 0.0000000000000000e+00  3.5436658206153173e-05 -2.2047442431108425e-04 0.0000000000000000e+00  -2.8875099388808018e-04 1.8950433253409581e-03 0.0000000000000000e+00  1.3099599253261036e-03 9.0539351029884441e-04 0.0000000000000000e+00  -1.3679251893600499e-02 1.7248888246671665e-03 0.0000000000000000e+00  -7.9457588418004607e-04 1.6824090690065649e-03 0.0000000000000000e+00  -3.4877924400577854e-06 1.6528944037049232e-05 0.0000000000000000e+00  -3.9436324118523023e-05 -5.9910206644629303e-04 0.0000000000000000e+00  -1.0633940917738546e-05 4.5470591008133420e-05 0.0000000000000000e+00  6.5106923197078852e-05 2.2863383942690413e-04 0.0000000000000000e+00  -1.6261201669822425e-05 -3.4198657233083910e-04 0.0000000000000000e+00  -3.7902689832117214e-05 -2.8457272619695616e-04 0.0000000000000000e+00  5.2235718386844964e-04 -4.5727312308075503e-05 0.0000000000000000e+00  9.6769847443002235e-03 9.7188098724034888e-01 0.0000000000000000e+00  7.8585805517560215e-03 -5.8018982794611174e-01 0.0000000000000000e+00  -1.1815739662541319e-02 1.1882577210702574e+00 0.0000000000000000e+00  1.4197283774688372e-02 2.9112257796989011e-01 0.0000000000000000e+00  -4.3111594178324187e-04 -5.1601191641233407e-04 0.0000000000000000e+00  1.2930569037845545e-03 -5.4811565199392125e-05 0.0000000000000000e+00  4.5331996467616046e-05 -3.4962116888633134e-04 0.0000000000000000e+00  -1.2999430312584423e-02 -9.5114783506753120e-02 0.0000000000000000e+00  -6.2381274535804889e-04 -5.2931445848125407e-04 0.0000000000000000e+00  -5.9484068724186647e-06 5.7387503928632084e-06 0.0000000000000000e+00  1.8516862229997619e-01 9.0856211565819689e-01 0.0000000000000000e+00  3.8839685699538093e-02 -6.6115060409455095e-01 0.0000000000000000e+00  -3.4391028392232063e-02 6.2424298504646547e-01 0.0000000000000000e+00  4.1529187199345870e-04 -5.2323358071292361e-04 0.0000000000000000e+00  -1.8863431445915547e-02 -6.7053310987289305e-01 0.0000000000000000e+00  -4.4217972214475057e-02 4.5286716289214141e-01 0.0000000000000000e+00  -3.8878375955923779e-04 2.0432610863999836e-05 0.0000000000000000e+00  -2.1178223013919354e-03 -6.1385363630419065e-01 0.0000000000000000e+00  2.2485988515916117e-02 8.2957654164887840e-01 0.0000000000000000e+00  4.8721152008333046e-02 8.1938227094583993e-01 0.0000000000000000e+00  -1.5303147068262718e-01 1.3930256707903066e+00 0.0000000000000000e+00  3.3638959252957788e-03 5.3359951265819949e-01 0.0000000000000000e+00  1.4243071355225848e-01 1.4121024520758847e+00 0.0000000000000000e+00  3.1321403720769941e-02 -5.4478172264870273e-01 0.0000000000000000e+00  5.8981308308862938e-02 6.9280356138369659e-01 0.0000000000000000e+00  -1.8810811591722579e-01 7.2294354803355010e-01 0.0000000000000000e+00  9.2582191916529138e-03 8.1048813220880422e-01 0.0000000000000000e+00  2.2225670526817643e-03 -6.9688500913950613e-01 0.0000000000000000e+00  5.8212084184317073e-03 8.4657265086785272e-01 0.0000000000000000e+00  4.0662556292129165e-01 1.2821756909472077e+00 0.0000000000000000e+00  -4.2637074157557048e-02 1.6513367449392721e-01 0.0000000000000000e+00  -4.4264855544600530e-02 8.9169706515243241e-01 0.0000000000000000e+00  -4.2440888369760579e-02 -3.9807916490854064e-02 0.0000000000000000e+00  3.1522236084823470e-02 1.6684289513492148e-01 0.0000000000000000e+00  2.4913291619134229e-06 2.5555692308847262e-05 0.0000000000000000e+00  -3.7605602791985976e-01 1.2665205357616589e+00 0.0000000000000000e+00  -2.5014360827955485e-02 8.1520665648492896e-01 0.0000000000000000e+00  4.9298305147301054e-04 1.5318350885359974e-01 0.0000000000000000e+00  -4.4529712298955384e-03 -5.3950426241169658e-01 0.0000000000000000e+00  -1.8753862573116626e-03 3.4324969708763370e-01 0.0000000000000000e+00  -2.4734054056723746e-02 6.8349325337075562e-01 0.0000000000000000e+00  3.3225904532951664e-03 -7.0890814694205229e-01 0.0000000000000000e+00  -9.7089599527947712e-02 9.1644562261121987e-01 0.0000000000000000e+00  3.2246453732662536e-02 -7.8542610768433685e-01 0.0000000000000000e+00  -5.3506119697490240e-03 9.1938672546051985e-05 0.0000000000000000e+00  -1.5267924659559576e-02 7.5428482918035289e-01 0.0000000000000000e+00  2.3680650582554849e-02 -7.2208849801097463e-01 0.0000000000000000e+00  5.5114185254735465e-02 1.0496281399035630e-01 0.0000000000000000e+00  6.5105417257808690e-02 -8.4662693908110553e-01 0.0000000000000000e+00  1.9584054213876517e-02 -2.1950161529286791e-01 0.0000000000000000e+00  -1.6353893448818969e-02 8.0491083659585450e-01 0.0000000000000000e+00  3.3834217498124312e-02 -6.7505164228351344e-01 0.0000000000000000e+00  3.1833938655834165e-01 -6.5979406573629562e-01 0.0000000000000000e+00  1.3878495255334522e-01 -5.9459549045039428e-01 0.0000000000000000e+00  8.0744891283021675e-02 7.8472304301270135e-01 0.0000000000000000e+00  2.3740565236106501e-02 -2.7641508631212786e-01 0.0000000000000000e+00  1.5329098065201853e-03 7.7812462978726286e-05 0.0000000000000000e+00  5.2423749577030522e-04 -4.2296276043751784e-04 0.0000000000000000e+00  -7.6774988999805546e-02 -6.3354741756866606e-01 0.0000000000000000e+00  -4.4611734100412220e-02 -8.3734002376823435e-01 0.0000000000000000e+00  1.0935310651734286e-04 -3.2072634880496095e-04 0.0000000000000000e+00  -4.5218065705351002e-02 -6.5697163230056055e-01 0.0000000000000000e+00  -1.0457368812248923e-02 3.8129663108550610e-01 0.0000000000000000e+00  -1.9026805224861287e-02 -2.6942937345206568e-02 0.0000000000000000e+00  -3.5469708697210899e-04 -2.1929586661664015e-04 0.0000000000000000e+00  -7.0512771154154449e-04 5.2585890335453812e-04 0.0000000000000000e+00  1.3852706051811972e-02 8.6792085731253843e-01 0.0000000000000000e+00  -6.6528651642057245e-03 8.3892365507838229e-01 0.0000000000000000e+00  3.1220806797560383e-02 -4.6613601853445896e-01 0.0000000000000000e+00  1.0468063486115261e-02 4.1108861342971847e-01 0.0000000000000000e+00  1.6676377270958575e-03 -5.2905226743469513e-01 0.0000000000000000e+00  2.7160820010359377e-03 -6.5931813867664735e-01 0.0000000000000000e+00  8.7429805590225540e-04 -8.0306159209293550e-07 0.0000000000000000e+00  2.9056572823898114e-01 -1.4802392848786741e-01 0.0000000000000000e+00  2.2597396790880259e-02 -3.3144326304965771e-01 0.0000000000000000e+00  -4.2966372761297480e-04 -6.4599195577388717e-04 0.0000000000000000e+00  4.6401081187004471e-04 -5.1349606946550855e-04 0.0000000000000000e+00  2.6202953226512954e-04 -2.6135720770491684e-04 0.0000000000000000e+00  -5.3222198634388801e-04 -6.8259363762341403e-04 0.0000000000000000e+00  -1.7614629708138525e-04 -1.7093955408998624e-04 0.0000000000000000e+00  -6.4883484451974430e-06 -9.2212501068140861e-06 0.0000000000000000e+00  1.3478441776158499e-05 -6.2442035162916791e-05 0.0000000000000000e+00  3.8398726727026318e-04 -7.1157290970121675e-04 0.0000000000000000e+00  9.1598802163456186e-02 -2.0927564173379720e-01 0.0000000000000000e+00  -1.2354277460333856e-02 -3.8778687017907554e-01 0.0000000000000000e+00  -8.8907383234140130e-02 3.5736249466602484e-02 0.0000000000000000e+00  5.6145787839542514e-02 -3.5191800713284010e-01 0.0000000000000000e+00  3.2746516411665261e-02 -9.1385447397176064e-02 0.0000000000000000e+00  1.3404140567330150e-03 2.7093109749845145e-04 0.0000000000000000e+00  -6.8972534405655972e-01 -2.5562291392994918e-01 0.0000000000000000e+00  -1.4169078261191950e-01 -2.8859227419614564e-01 0.0000000000000000e+00  2.1915399977492232e-02 -6.7480137898199755e-01 0.0000000000000000e+00  -7.0349566114068646e-02 -7.9452741183691600e-01 0.0000000000000000e+00  -3.4810597944843313e-01 -1.8280448054945936e-01 0.0000000000000000e+00  -8.5248058762097973e-03 1.6029327992812362e-01 0.0000000000000000e+00  -1.1831987786475189e-01 -3.8592112532149458e-01 0.0000000000000000e+00  2.2119096176076924e-01 -4.3500090370478653e-02 0.0000000000000000e+00  -4.1520001359071773e-02 -5.1561554446765079e-01 0.0000000000000000e+00  3.6567186818816516e-02 6.4644993679158669e-01 0.0000000000000000e+00  -3.4287944725806922e-02 -7.8952341975442275e-01 0.0000000000000000e+00  1.3493400288374837e-02 9.1648894181936846e-01 0.0000000000000000e+00  -3.4157074000102777e-01 -6.2756950138914525e-01 0.0000000000000000e+00  -2.6495349060199964e-02 -8.4344499592884314e-01 0.0000000000000000e+00  -1.5660048831896440e-02 7.2641797610559400e-01 0.0000000000000000e+00  1.3068282922241412e-02 -4.2826416424109154e-01 0.0000000000000000e+00  2.0649264946942920e-02 -6.4694747181727674e-01 0.0000000000000000e+00  5.4558532920801692e-02 -3.7861114025898351e-01 0.0000000000000000e+00  6.8642470069001071e-01 -2.6929792875488184e-01 0.0000000000000000e+00  3.2599588939038068e-02 7.5118116135970980e-01 0.0000000000000000e+00  4.8882662315369897e-03 -9.2713398564126559e-01 0.0000000000000000e+00  2.2668880452915326e-02 4.5009083884967310e-01 0.0000000000000000e+00  -9.4859827415820133e-03 1.6004211745611110e-01 0.0000000000000000e+00  -3.3958042847163705e-04 8.0630914334555026e-01 0.0000000000000000e+00  -4.0801232876917322e-03 2.2317731926530487e-01 0.0000000000000000e+00  -3.6819242063621687e-03 4.6779090492168357e-01 0.0000000000000000e+00  1.6069451351206804e-01 3.7823934789423430e-01 0.0000000000000000e+00  -1.1834585907931872e-01 -1.1065929157356474e-01 0.0000000000000000e+00  1.3460181850930661e-01 -1.7763902762097061e-01 0.0000000000000000e+00  -6.8898991652230710e-03 4.8719611482532094e-01 0.0000000000000000e+00  -2.2433136080158671e-02 1.5442865915820889e-01 0.0000000000000000e+00  1.0016600400478240e-02 -6.8694813316740166e-01 0.0000000000000000e+00  1.4120105822131835e-03 2.9698917182646267e-01 0.0000000000000000e+00  -8.6289337918570588e-02 2.1866937695670036e-01 0.0000000000000000e+00  -3.5446802543308641e-02 7.3415079140308614e-01 0.0000000000000000e+00  5.7045726260354472e-03 -1.0714061224072451e-01 0.0000000000000000e+00  -1.5355377511928564e-02 -1.4775174679899694e-01 0.0000000000000000e+00  1.0949609178279213e-02 5.5742343253888149e-01 0.0000000000000000e+00  -2.3473955087971021e-01 -2.2479195217783765e-01 0.0000000000000000e+00  4.8048383080727197e-01 -2.4339653512409481e-01 0.0000000000000000e+00  5.6686264318652245e-03 -8.1022948781637505e-01 0.0000000000000000e+00  8.9859983874669841e-03 -6.4856365622623069e-01 0.0000000000000000e+00  -1.1327948576098992e-02 -9.1541779016307212e-01 0.0000000000000000e+00  -1.5637801278537397e-01 -1.6424805107561999e-01 0.0000000000000000e+00  -3.0574030205205233e-02 4.9661906319590821e-01 0.0000000000000000e+00  4.6020465134233196e-01 9.2716650980955706e-01 0.0000000000000000e+00  1.3183325637666954e-01 1.6256773654035464e-01 0.0000000000000000e+00  -4.0400802010913311e-02 -2.2246118623670896e-01 0.0000000000000000e+00  2.3395306232717322e-02 -2.2266658526549341e-01 0.0000000000000000e+00  -4.0370041136036483e-02 -8.3567702449998016e-01 0.0000000000000000e+00  4.3607185468428823e-02 8.1553147568406037e-01 0.0000000000000000e+00  2.9042503116542891e-02 8.9100070902813222e-01 0.0000000000000000e+00  -3.6499846574497931e-02 7.8281098724175036e-01 0.0000000000000000e+00  4.0583990343625080e-02 -7.7352927850293940e-01 0.0000000000000000e+00  4.1803700490917603e-03 3.7451551143458195e-01 0.0000000000000000e+00  2.4605369380764967e-02 -8.1301163776999985e-01 0.0000000000000000e+00  -2.3249751106156510e-02 7.2676549634811860e-01 0.0000000000000000e+00  -2.4288239989717252e-02 8.5373830354399416e-01 0.0000000000000000e+00  2.2767197929357094e-01 9.2957332061379616e-01 0.0000000000000000e+00  1.8854548605766568e-02 -3.2433628126481856e-01 0.0000000000000000e+00  -6.3534119024443628e-02 8.1186302590909676e-01 0.0000000000000000e+00  -5.7853250854039495e-01 4.3993364821483455e-01 0.0000000000000000e+00  4.3805266971537887e-03 -7.0824936340375910e-01 0.0000000000000000e+00  2.2021519959102044e-02 -1.6469097882786413e-01 0.0000000000000000e+00  -7.7654163323680470e-02 1.1497914182926796e+00 0.0000000000000000e+00  2.5277916575185241e-02 -1.4496941392922244e-01 0.0000000000000000e+00  1.3003613068258019e-04 -3.0232118550670297e-04 0.0000000000000000e+00  -2.3313194374697924e-02 -3.0853125047886565e-01 0.0000000000000000e+00  2.9603695203300523e-01 -3.6270277707495974e-01 0.0000000000000000e+00  -1.2017164336671412e-02 -8.4199796699337359e-01 0.0000000000000000e+00  -1.9162100857243031e-02 -5.8973469316587002e-01 0.0000000000000000e+00  5.6413621556655025e-02 9.1191069334777242e-01 0.0000000000000000e+00  4.5629598023667036e-03 8.8387235843180312e-02 0.0000000000000000e+00  6.0248621316164164e-05 -4.9651609598492272e-04 0.0000000000000000e+00  8.5461255949676376e-03 -6.5267391037504741e-01 0.0000000000000000e+00  8.0227770870752738e-02 -6.8666068041469541e-01 0.0000000000000000e+00  2.3743237645588278e-02 1.4102950003775225e-01 0.0000000000000000e+00  -2.9545284449354207e-04 -6.3614013153308346e-04 0.0000000000000000e+00  -6.2339690468779879e-02 5.0604763408912033e-02 0.0000000000000000e+00  -4.1343705900210942e-02 8.3783913074434002e-01 0.0000000000000000e+00  4.6023826620631703e-02 -4.1446384968195754e-01 0.0000000000000000e+00  3.4745181308316717e-03 4.0040442398868464e-01 0.0000000000000000e+00  1.6237446281531372e-03 1.8723561416492050e-04 0.0000000000000000e+00  -4.4060375211451946e-01 7.8021011280880803e-01 0.0000000000000000e+00  6.2144706882426050e-02 5.2571484686152126e-01 0.0000000000000000e+00  3.3224813584048225e-02 4.4672072239416699e-01 0.0000000000000000e+00  -1.0017205719787625e-02 -4.2026787587916888e-03 0.0000000000000000e+00  -9.0540940039441960e-03 -7.0510454414100565e-01 0.0000000000000000e+00  7.2447039026475755e-03 1.1685794186268307e-01 0.0000000000000000e+00  -2.6808514063084821e-01 1.3591338536946393e+00 0.0000000000000000e+00  -6.5617705047742975e-02 5.9209735835569233e-01 0.0000000000000000e+00  -4.5892980390292493e-02 -6.4320714194075002e-01 0.0000000000000000e+00  1.2867706009261073e-01 2.7345905148662863e-02 0.0000000000000000e+00  -3.8673144529486378e-02 -3.1621044044049335e-01 0.0000000000000000e+00  -1.5461788176547555e-02 4.6684686747586196e-01 0.0000000000000000e+00  3.0042965112674846e-03 -6.3273631589951407e-01 0.0000000000000000e+00  3.3184760274961099e-04 -3.8137356185821198e-04 0.0000000000000000e+00  -2.2149740395837725e-01 9.4310323423646780e-01 0.0000000000000000e+00  1.9736845194378647e-01 1.0511990464654768e+00 0.0000000000000000e+00  6.5223561113664065e-03 -5.9592549000466144e-01 0.0000000000000000e+00  -1.1919449679884871e-01 -3.7382006044280769e-01 0.0000000000000000e+00  1.4859451214611449e-02 1.8341904153625177e-01 0.0000000000000000e+00  -1.1408351489922450e-02 -8.4608077617132305e-01 0.0000000000000000e+00  -1.1852302706616139e-05 1.3383852952449729e-05 0.0000000000000000e+00  8.3025581086551645e-03 8.0929413753650981e-01 0.0000000000000000e+00  1.7523994296883363e-02 5.5185711111647151e-01 0.0000000000000000e+00  3.8209108836790809e-02 8.5564896545289293e-01 0.0000000000000000e+00  4.9825005481240450e-04 5.6706436762507550e-04 0.0000000000000000e+00  -1.1735706821140609e-02 -5.3948761898266140e-01 0.0000000000000000e+00  -7.3891203472404776e-03 4.7422376654363557e-01 0.0000000000000000e+00  3.0029346285782854e-01 1.3445826425140051e+00 0.0000000000000000e+00  -4.8796914454996227e-03 -7.4191351003307049e-01 0.0000000000000000e+00  1.9256167022203439e-03 4.5365329738160398e-01 0.0000000000000000e+00  8.7147531808700208e-03 9.3276125133301524e-02 0.0000000000000000e+00  -2.2446808675740677e-02 7.0239946063669545e-01 0.0000000000000000e+00  -1.1182970828262934e-02 -4.5347488971123229e-01 0.0000000000000000e+00  9.6968051109591169e-02 -1.6357012879577709e-01 0.0000000000000000e+00  4.4507993215119022e-02 8.8440076064485340e-01 0.0000000000000000e+00  2.1190457217727662e-02 5.7728053377930487e-02 0.0000000000000000e+00  -1.6115175847590721e-01 -5.3360344539690663e-01 0.0000000000000000e+00  4.4107462161137610e-02 1.1761184009199146e+00 0.0000000000000000e+00  4.5152364208523581e-02 -4.1029278751358850e-01 0.0000000000000000e+00  -1.4734678524454825e-01 -4.1641433124136373e-01 0.0000000000000000e+00  2.8530623329292806e-02 -9.0577087884519836e-01 0.0000000000000000e+00  1.6501383789689145e-02 -6.0568238001967789e-01 0.0000000000000000e+00  1.2664853050733363e-01 6.9019422763601868e-01 0.0000000000000000e+00  -1.7703848955387958e-04 3.0251726872005855e