<?xml version="1.0"?>
<VTKFile type="UnstructuredGrid"  version="0.1"  >
<UnstructuredGrid>
<Piece  NumberOfPoints="4978" NumberOfCells="9630">
<Points>
<DataArray  type="Float64"  NumberOfComponents="3"  format="ascii">0 1.5 0  0 0 0  0.06190941752361886 0 0  0.06190941752361886 0.02304324263930277 0  0.07687367483109155 0.06663263502519032 0  0.1051805799723963 0.1030013474942385 0  0.1437626405485843 0.128208265731708 0  0.1884388916338735 0.1395218290209338 0  0.2343679681997119 0.1357160372315063 0  0.2765727421371398 0.117203306956754 0  0.3104796713154951 0.0859897797765535 0  0.3324144138380889 0.04545792568865569 0  0.34 0 0  0.4722134970410927 0 0  0.4722134970410927 0.02388743731615415 0  0.4894717723551502 0.0684361811740563 0  0.5216574972706967 0.1037422395464312 0  0.5644238112906292 0.1250373336124665 0  0.6119948867302293 0.1294454429183545 0  0.6579459862509499 0.1163712278761581 0  0.6960711592386857 0.08758043367405244 0  0.7212213898225662 0.04696141660432988 0  0.73 0 0  0.85 0 0  0.857341522555727 0.04635254915624212 0  0.8786474508437579 0.08816778784387098 0  0.9118322121561291 0.1213525491562421 0  0.9536474508437579 0.142658477444273 0  1 0.15 0  1.046352549156242 0.142658477444273 0  1.088167787843871 0.1213525491562421 0  1.121352549156242 0.08816778784387097 0  1.142658477444273 0.04635254915624211 0  1.15 0 0  1.461909417523619 0 0  1.461909417523619 0.02304324263930277 0  1.476873674831092 0.06663263502519032 0  1.505180579972396 0.1030013474942385 0  1.543762640548584 0.128208265731708 0  1.588438891633874 0.1395218290209338 0  1.634367968199712 0.1357160372315063 0  1.67657274213714 0.117203306956754 0  1.710479671315495 0.0859897797765535 0  1.732414413838089 0.04545792568865569 0  1.74 0 0  1.78 0 0  1.789134456098646 0.04592201188381079 0  1.815147186257614 0.08485281374238571 0  1.854077988116189 0.1108655439013544 0  1.9 0.12 0  1.945922011883811 0.1108655439013544 0  1.984852813742386 0.08485281374238569 0  2.010865543901355 0.04592201188381077 0  2.02 0 0  2.161909417523619 0 0  2.161909417523619 0.02304324263930277 0  2.176873674831092 0.06663263502519032 0  2.205180579972396 0.1030013474942385 0  2.243762640548584 0.128208265731708 0  2.288438891633873 0.1395218290209338 0  2.334367968199712 0.1357160372315063 0  2.37657274213714 0.117203306956754 0  2.410479671315495 0.0859897797765535 0  2.432414413838089 0.04545792568865569 0  2.44 0 0  2.472213497041093 0 0  2.472213497041093 0.02388743731615415 0  2.48947177235515 0.0684361811740563 0  2.521657497270697 0.1037422395464312 0  2.564423811290629 0.1250373336124665 0  2.611994886730229 0.1294454429183545 0  2.65794598625095 0.1163712278761581 0  2.696071159238686 0.08758043367405244 0  2.721221389822567 0.04696141660432988 0  2.73 0 0  3 0 0  3 1.5 0  0 0.75 0  3 0.75 0  1.5 1.5 0  0 0.375 0  0 0.1875 0  0 0.09375 0  0.75 1.5 0  2.25 1.5 0  1.137279452465634 0.8667483509386543 0  2.055384907633385 0.8149748422668953 0  0.5545701656450307 0.9454298343549693 0  2.545804583542266 1.045804583542266 0  2.462951104370831 0.5854482317237805 0  1.6063536999151 1.018574336065804 0  0.7683179692414909 0.5511078775270282 0  1.647896012796697 0.5780189144999826 0  1.875 1.5 0  0.3683226130580748 0.5893782185394094 0  0.375 1.5 0  0 1.125 0  3 0.375 0  1.125 1.5 0  3 1.125 0  2.625 1.5 0  1.247216233241016 0.4851891764902285 0  0.8779404074027722 1.143194262378568 0  1.992337703792022 0.4642129848858538 0  2.200035536160075 1.144037289792772 0  1.3125 1.206118267007311 0  1.882280687299076 1.18026905614258 0  0.8375010042452264 0.8437030129736524 0  0.2703628106324028 0.8673582108832857 0  0.336944444033578 1.181320038574892 0  1.424720841531434 0.7792108746582741 0  2.763716218670896 0.5625 0  0.6112325230261646 1.216037756380734 0  2.429292395855053 1.293345775631689 0  2.798691155259055 0.9375 0  2.340750225085827 0.8450755885956063 0  2.74506315455788 1.24506315455788 0  0.4115012634770826 0.3359864655288552 0  1.6875 1.5 0  1.553212834656815 1.259295117559057 0  1.783849920010049 0.8130750647527071 0  2.590242300399914 0.800172794523538 0  2.206538789959823 0.6067588023913982 0  1.022769083327432 0.627137676743421 0  2.0625 1.5 0  2.566013274303806 0.3667751817948443 0  2.317230353528816 0.3853650267397287 0  0.9546600707351991 0.3912757388497677 0  1.76490060939521 0.3540000691256479 0  1.398169292756645 0.3089248951275104 0  0.1875 1.5 0  0.6961815191548208 0.3380429757712475 0  0.6390751493076395 0.7361434669345621 0  1.385952842918209 0.9972233609662619 0  1.082019261833385 1.265823315390121 0  2.784258672215756 0.3048233224522298 0  0 0.5625 0  0.2130557952202133 0.4325455696870932 0  2.110276358430479 0.2903936515686117 0  0 1.3125 0  0.5618175915722093 0.5022778936897083 0  1.438605690073396 0.5702366817214194 0  1.851778102902867 0.6169409446553686 0  0.9375 1.5 0  1.918499765346388 0.9737703250858507 0  1.066617221574711 1.060327143126178 0  0.17830064634795 0.65625 0  1.139464543633635 0.3182162642668528 0  1.214887260891528 0.6824917486258804 0  0.4470960700565646 0.7803305254813445 0  2.056073894593081 1.292965518236122 0  0.7800417460951754 1.309431349558015 0  0.7102942521579887 1.054059105222724 0  2.772203778896419 0.7508393899039921 0  3 0.9375 0  2.4375 1.5 0  0.5625 1.5 0  3 0.5625 0  1.3125 1.5 0  0 0.9375 0  3 1.3125 0  2.8125 1.5 0  3 0.1875 0  1.74009613212014 1.312845810865967 0  0.1858279553328271 1.04932632064409 0  1.582414108002925 0.3243096672004901 0  0.4576542986122824 1.328517530191622 0  1.30595470876181 0 0  0.1616828829631953 1.229471150973137 0  1.600689448835705 0.8342777580615786 0  2.184954406689295 0.9543424310663166 0  2.356848459734244 1.033731425282726 0  2.249618867339344 1.318565528322325 0  2.031012140730151 0.6383085966483963 0  1.264473591492607 0.1926369230867345 0  1.93294708275428 0.2969945700235964 0  1.406271966518558 1.353045118606616 0  0.2855042944080262 1.351202341158466 0  2.163692386827529 0.4469681835123645 0  2.058709899218631 1.05982604745508 0  1.21875 1.361760465218127 0  1.232585115983139 1.060656719142284 0  1.682328919476849 1.161572426192166 0  0.4864612871934715 1.100927295036068 0  2.842393003195402 0.1547034389615206 0  1.901710724058898 1.340659870484523 0  2.578488906869203 1.212378831230944 0  0.346730023619794 1.013455011579226 0  1.758789788261688 0.970834021568154 0  0.9209577900333827 0.984909924281538 0  2.461973640748163 0.2490632223012221 0  2.833434714842781 1.102015011431888 0  1.485476187845101 1.118115752354218 0  0.7869575052851041 0.2127716822913992 0  1.091585464669657 0.4673676525872368 0  0.9308375558444295 1.286291202675726 0  2.609275627299536 0.5207885309723005 0  2.859418780372727 0.4404724026784034 0  0.1368795735450182 0.2913992261536034 0  0.5088670694303536 0.6431238265444117 0  0.9924988599062848 0.7887715626383616 0  0.8674753477047706 0.6821390867986818 0  0.6993572585883594 0.9038049302516018 0  1.53924450853783 0.6818717864694561 0  1.27954362181495 0.818196911265721 0  2.885754890315292 0.65625 0  0.1199579452929171 0.84375 0  0.3101130847613819 0.7251157056441525 0  2.683488575489726 1.10528265125029 0  2.637912450120847 1.350340704724588 0  0.65625 1.387568746661148 0  2.204969505432462 0.7645924845263576 0  2.34230217156612 0.6870332922078795 0  2.458336421316689 0.930056573232228 0  1.547170662421109 0.4687109428674099 0  0.55426355401875 0.2785752421136156 0  1.927690911684502 0.7425770788416013 0  2.650983472818039 0.6639703826486528 0  0.2807744135836687 0.2731407085328489 0  2.697063502273202 0.4130460425434029 0  1.768721210125562 0.4985606178023466 0  1.59375 1.394491048145999 0  1.03125 1.39617417476255 0  2.649124789533757 0.9376608889715211 0  2.899345577629528 0.84375 0  2.448792339301353 1.151333513094988 0  2.455516477512143 0.7671738041202795 0  0.1479512725554237 1.367277900867101 0  1.733007556765436 0.6856365299097277 0  2.865 0 0  0.407900401917371 0.1920322062602331 0  1.482893533441057 0.9020086108979886 0  2.902194538181383 1.21875 0  2.860324471164851 1.360324471164851 0  0.9128790560808855 0.5311054613533476 0  0.7396036279203969 1.183264973390871 0  1.379392725427689 0.4456149894503371 0  0.8305263666170877 0.339868595109382 0  2.352639297837627 1.399880277695907 0  2.15625 1.5 0  2.32277762299786 1.203473773731512 0  1.818471673600783 0.235727380341035 0  1.269129800285538 0.3222823294390822 0  2.329228807632851 0.5297324129610972 0  0.430777275012463 0.469645907614299 0  1.390502090335328 0.1630587681988043 0  1.149408636841162 1.157447166816889 0  1.687853147042319 0.2519031106491252 0  0.3941048876243997 0.8956837842542459 0  1.877835046604575 0.410724628626283 0  1.348230251479045 0.6691802479050837 0  2.336954765206726 0.2613063289913201 0  2.514033953321691 1.393470229958569 0  0 0.46875 0  0.1287800079303892 0.5340043503292357 0  2.441328451749267 0.3721441168812449 0  0.9333932382689634 0.2670516659043625 0  1.13959172768211 0.5827503401695603 0  0.8703665929291606 1.395134656069543 0  1.240468926246127 0.9364063612525604 0  1.433475419570003 1.229904687600933 0  1.020534477629395 0.9101139083191684 0  1.108777781305164 0.7462713331880694 0  0.6468125623079457 0.6038935958199032 0  1.665312060212151 0.428962863572448 0  0.2512528931669099 0.5500044694745148 0  2.66971919386773 0.2450375495263612 0  2.901855502368762 0.2640467328343441 0  2.063534245742155 0.9373123558679215 0  2.031795413587333 0.1972457754676831 0  1.836924180675512 1.065887991891963 0  1.001601941364679 1.16852535211421 0  0.8051266927803291 0.9581030042697194 0  0.7620228346493961 0.7461373576581022 0  3 1.03125 0  2.084817260746984 1.176705869274554 0  2.085981885570153 0.5347538843754811 0  1.496744890324478 0.239335226969819 0  1.894594308711337 0.8570406362709689 0  1.78125 1.5 0  2.109375 1.394928085212741 0  2.71875 1.5 0  0.4943575340553394 1.217544978302146 0  0.5937185858435849 1.055241883498284 0  2.227680725187669 0.3075299344665331 0  0.5158109084499103 0.3891628929402524 0  1.96875 1.5 0  0.6036564600183
[...]
<PointData  Tensors="f_568"> 
<DataArray  type="Float64"  Name="f_568"  NumberOfComponents="9" format="ascii">-8.1151331813357892e+00 -1.5456215455069908e+00 0.0000000000000000e+00 -1.5456215455069908e+00 -1.1758574607540430e+01 0.0000000000000000e+00 0.0000000000000000e+00 0.0000000000000000e+00 0.0000000000000000e+00  3.6405571047759487e+01 3.0385453971759016e+00 0.0000000000000000e+00 3.0385453971759016e+00 2.8840593730918812e+01 0.0000000000000000e+00 0.0000000000000000e+00 0.0000000000000000e+00 0.0000000000000000e+00  2.5191078978216719e+01 2.9275767967932480e+00 0.0000000000000000e+00 2.9275767967932480e+00 3.2975418660029831e+01 0.0000000000000000e+00 0.0000000000000000e+00 0.0000000000000000e+00 0.0000000000000000e+00  4.7883304210922063e+01 1.4763802814235843e+01 0.0000000000000000e+00 1.4763802814235843e+01 1.7230698160937713e+01 0.0000000000000000e+00 0.0000000000000000e+00 0.0000000000000000e+00 0.0000000000000000e+00  6.6709908498235478e+01 6.1510054111788026e+00 0.0000000000000000e+00 6.1510054111788026e+00 -1.8280441902718426e+01 0.0000000000000000e+00 0.0000000000000000e+00 0.0000000000000000e+00 0.0000000000000000e+00  8.8418220003800513e+01 8.5178734443027064e+00 0.0000000000000000e+00 8.5178734443027064e+00 -3.4948675438644791e+01 0.0000000000000000e+00 0.0000000000000000e+00 0.0000000000000000e+00 0.0000000000000000e+00  5.6676702925954260e+01 -6.5603353725042002e+00 0.0000000000000000e+00 -6.5603353725042002e+00 -6.3597805770432503e+00 0.0000000000000000e+00 0.0000000000000000e+00 0.0000000000000000e+00 0.0000000000000000e+00  3.3934547956275757e+01 2.9520555450597467e+01 0.0000000000000000e+00 2.9520555450597467e+01 1.3948389464338934e+01 0.0000000000000000e+00 0.0000000000000000e+00 0.0000000000000000e+00 0.0000000000000000e+00  4.0892206319619866e+01 5.3129932226251753e+01 0.0000000000000000e+00 5.3129932226251753e+01 1.8093062398649586e+00 0.0000000000000000e+00 0.0000000000000000e+00 0.0000000000000000e+00 0.0000000000000000e+00  1.2493640415860703e+01 1.1352153452281327e+01 0.0000000000000000e+00 1.1352153452281327e+01 5.2167750670679084e+01 0.0000000000000000e+00 0.0000000000000000e+00 0.0000000000000000e+00 0.0000000000000000e+00  -4.8330982730346321e+01 3.1016309537091200e+01 0.0000000000000000e+00 3.1016309537091200e+01 9.1542526830353282e+01 0.0000000000000000e+00 0.0000000000000000e+00 0.0000000000000000e+00 0.0000000000000000e+00  -3.8329395788744442e+01 5.9016287611009524e+01 0.0000000000000000e+00 5.9016287611009524e+01 8.7548942581100363e+01 0.0000000000000000e+00 0.0000000000000000e+00 0.0000000000000000e+00 0.0000000000000000e+00  3.5925642224919102e+01 9.6642054858580373e+00 0.0000000000000000e+00 9.6642054858580373e+00 3.1007847520340494e+01 0.0000000000000000e+00 0.0000000000000000e+00 0.0000000000000000e+00 0.0000000000000000e+00  2.4715791412469528e+01 2.3039633431877374e-01 0.0000000000000000e+00 2.3039633431877374e-01 2.1861677338042291e+01 0.0000000000000000e+00 0.0000000000000000e+00 0.0000000000000000e+00 0.0000000000000000e+00  4.2024448944575703e+01 1.3036120331092212e+01 0.0000000000000000e+00 1.3036120331092212e+01 1.4372982507407446e+01 0.0000000000000000e+00 0.0000000000000000e+00 0.0000000000000000e+00 0.0000000000000000e+00  2.7292898409572363e+01 1.3587442570302207e+01 0.0000000000000000e+00 1.3587442570302207e+01 2.1060170401061182e+01 0.0000000000000000e+00 0.0000000000000000e+00 0.0000000000000000e+00 0.0000000000000000e+00  -1.9387676577843923e+01 1.8066626985016409e+01 0.0000000000000000e+00 1.8066626985016409e+01 7.6127965438929792e+01 0.0000000000000000e+00 0.0000000000000000e+00 0.0000000000000000e+00 0.0000000000000000e+00  -1.2103180816686580e+01 4.4758699025544836e+01 0.0000000000000000e+00 4.4758699025544836e+01 6.3593297864277297e+01 0.0000000000000000e+00 0.0000000000000000e+00 0.0000000000000000e+00 0.0000000000000000e+00  5.1412566207317418e+00 -5.5127222277550718e+00 0.0000000000000000e+00 -5.5127222277550718e+00 5.2035802684823047e+01 0.0000000000000000e+00 0.0000000000000000e+00 0.0000000000000000e+00 0.0000000000000000e+00  -2.9215725033580945e+01 -3.9209612772546656e+01 0.0000000000000000e+00 -3.9209612772546656e+01 8.2965989560935370e+01 0.0000000000000000e+00 0.0000000000000000e+00 0.0000000000000000e+00 0.0000000000000000e+00  1.0289784479776891e+01 -1.3375263767570432e+01 0.0000000000000000e+00 -1.3375263767570432e+01 3.2948055011936582e+01 0.0000000000000000e+00 0.0000000000000000e+00 0.0000000000000000e+00 0.0000000000000000e+00  3.7750011312473319e+01 -1.6493563828700488e+01 0.0000000000000000e+00 -1.6493563828700488e+01 9.1290239968863212e+00 0.0000000000000000e+00 0.0000000000000000e+00 0.0000000000000000e+00 0.0000000000000000e+00  2.7011426990226759e+01 2.1755581440477800e+00 0.0000000000000000e+00 2.1755581440477800e+00 2.2422715637881829e+01 0.0000000000000000e+00 0.0000000000000000e+00 0.0000000000000000e+00 0.0000000000000000e+00  -2.0930674387401541e-01 -9.2950793381640846e+00 0.0000000000000000e+00 -9.2950793381640846e+00 5.6981269138854920e+01 0.0000000000000000e+00 0.0000000000000000e+00 0.0000000000000000e+00 0.0000000000000000e+00  -1.6063522224906581e+01 -4.9990572360304888e+01 0.0000000000000000e+00 -4.9990572360304888e+01 6.7648098328637801e+01 0.0000000000000000e+00 0.0000000000000000e+00 0.0000000000000000e+00 0.0000000000000000e+00  -5.6772453011607766e+01 -2.6836275184269685e+01 0.0000000000000000e+00 -2.6836275184269685e+01 9.3161758241206471e+01 0.0000000000000000e+00 0.0000000000000000e+00 0.0000000000000000e+00 0.0000000000000000e+00  -2.2845263407536379e+01 -1.7875625332178576e+01 0.0000000000000000e+00 -1.7875625332178576e+01 6.7656149005740602e+01 0.0000000000000000e+00 0.0000000000000000e+00 0.0000000000000000e+00 0.0000000000000000e+00  3.0829254647951650e+01 -3.5145830002570449e+01 0.0000000000000000e+00 -3.5145830002570449e+01 1.7285775895596718e+01 0.0000000000000000e+00 0.0000000000000000e+00 0.0000000000000000e+00 0.0000000000000000e+00  3.0411618083221676e+01 -3.4343163389921003e+01 0.0000000000000000e+00 -3.4343163389921003e+01 9.6198939229651330e+00 0.0000000000000000e+00 0.0000000000000000e+00 0.0000000000000000e+00 0.0000000000000000e+00  4.3511299694899037e+01 4.5513800393018293e+00 0.0000000000000000e+00 4.5513800393018293e+00 -1.2993379507435909e-01 0.0000000000000000e+00 0.0000000000000000e+00 0.0000000000000000e+00 0.0000000000000000e+00  7.4587379897204627e+01 1.4407981936386767e+01 0.0000000000000000e+00 1.4407981936386767e+01 -3.5458339665350195e+01 0.0000000000000000e+00 0.0000000000000000e+00 0.0000000000000000e+00 0.0000000000000000e+00  6.6877406308616330e+01 -2.0181382857370074e+00 0.0000000000000000e+00 -2.0181382857370074e+00 -1.5423362425293107e+01 0.0000000000000000e+00 0.0000000000000000e+00 0.0000000000000000e+00 0.0000000000000000e+00  3.4484846994653680e+01 -1.0597546093083283e+01 0.0000000000000000e+00 -1.0597546093083283e+01 1.5986000497596004e+01 0.0000000000000000e+00 0.0000000000000000e+00 0.0000000000000000e+00 0.0000000000000000e+00  2.5636933577519130e+01 -4.1343326208578723e-01 0.0000000000000000e+00 -4.1343326208578723e-01 2.0154494633004884e+01 0.0000000000000000e+00 0.0000000000000000e+00 0.0000000000000000e+00 0.0000000000000000e+00  3.0107728552478889e+01 -4.3949786664179111e+00 0.0000000000000000e+00 -4.3949786664179111e+00 2.0191862592550624e+01 0.0000000000000000e+00 0.0000000000000000e+00 0.0000000000000000e+00 0.0000000000000000e+00  -2.1380977302881071e+01 -2.5459014532121905e+01 0.0000000000000000e+00 -2.5459014532121905e+01 5.6881195005159391e+01 0.0000000000000000e+00 0.0000000000000000e+00 0.0000000000000000e+00 0.0000000000000000e+00  -2.9258994470511698e+01 -3.5977726430071932e+01 0.0000000000000000e+00 -3.5977726430071932e+01 6.9002749971642658e+01 0.0000000000000000e+00 0.0000000000000000e+00 0.0000000000000000e+00 0.0000000000000000e+00  -2.8970620062414444e+01 -1.8435165947000865e+01 0.0000000000000000e+00 -1.8435165947000865e+01 6.8529865536005303e+01 0.0000000000000000e+00 0.0000000000000000e+00 0.0000000000000000e+00 0.0000000000000000e+00  1.8658475559223586e+01 -2.6461732937863324e+01 0.0000000000000000e+00 -2.6461732937863324e+01 2.1326041056373512e+01 0.0000000000000000e+00 0.0000000000000000e+00 0.0000000000000000e+00 0.0000000000000000e+00  2.8499004478762046e+01 -4.6036539134647256e+01 0.0000000000000000e+00 -4.6036539134647256e+01 -4.6750014363597288e+00 0.0000000000000000e+00 0.0000000000000000e+00 0.0000000000000000e+00 0.0000000000000000e+00  4.5191505640757406e+01 -1.4452599510439494e+00 0.0000000000000000e+00 -1.4452599510439494e+00 -8.9721976876273786e+00 0.0000000000000000e+00 0.0000000000000000e+00 0.0000000000000000e+00 0.0000000000000000e+00  8.5677194186512352e+01 2.6282636444766503e+01 0.0000000000000000e+00 2.6282636444766503e+01 -3.8967479694007309e+01 0.0000000000000000e+00 0.0000000000000000e+00 0.0000000000000000e+00 0.0000000000000000e+00  8.6050799319681289e+01 -9.3031973487655453e+00 0.0000000000000000e+00 -9.3031973487655453e+00 -3.8926495561634432e+01 0.0000000000000000e+00 0.0000000000000000e+00 0.0000000000000000e+00 0.0000000000000000e+00  3.9591548165351959e+01 -2.2242463473987652e+01 0.0000000000000000e+00 -2.2242463473987652e+01 2.2510814758020858e+00 0.0000000000000000e+00 0.0000000000000000e+00 0.0000000000000000e+00 0.0000000000000000e+00  3.0319039927593710e+01 -4.4260684895600448e+00 0.0000000000000000e+00 -4.4260684895600448e+00 7.8648458415490810e+00 0.0000000000000000e+00 0.0000000000000000e+00 0.0000000000000000e+00 0.0000000000000000e+00  1.7994504976233202e+01 -3.0654800756808958e+00 0.0000000000000000e+00 -3.0654800756808953e+00 3.9219963242002159e+01 0.0000000000000000e+00 0.0000000000000000e+00 0.0000000000000000e+00 0.0000000000000000e+00  4.0834675820519886e+00 -7.6188335094002717e+00 0.0000000000000000e+00 -7.6188335094002753e+00 3.8889470194727728e+01 0.0000000000000000e+00 0.0000000000000000e+00 0.0000000000000000e+00 0.0000000000000000e+00  -1.5889179437414339e-01 -1.2773726700183083e+01 0.0000000000000000e+00 -1.2773726700183083e+01 4.2195642657279535e+01 0.0000000000000000e+00 0.0000000000000000e+00 0.0000000000000000e+00 0.0000000000000000e+00  3.2502510834964333e+01 -4.3489274251817250e+01 0.0000000000000000e+00 -4.3489274251817250e+01 1.2267150413323392e+01 0.0000000000000000e+00 0.0000000000000000e+00 0.0000000000000000e+00 0.0000000000000000e+00  2.1134607821357438e+01 -5.5688948628132103e+01 0.0000000000000000e+00 -5.5688948628132103e+01 1.1144377155539464e+00 0.0000000000000000e+00 0.0000000000000000e+00 0.0000000000000000e+00 0.0000000000000000e+00  5.5845095723598646e+01 1.6051863683464280e+00 0.0000000000000000e+00 1.6051863683464280e+00 -2.0181817039994545e+01 0.0000000000000000e+00 0.0000000000000000e+00 0.0000000000000000e+00 0.0000000000000000e+00  8.4413569880538290e+01 6.6640330864480815e+00 0.0000000000000000e+00 6.6640330864480815e+00 -4.6643227874056798e+01 0.0000000000000000e+00 0.0000000000000000e+00 0.0000000000000000e+00 0.0000000000000000e+00  6.5274104924206171e+01 -3.3157442667194466e+01 0.0000000000000000e+00 -3.3157442667194466e+01 -2.7890941922634926e+01 0.0000000000000000e+00 0.0000000000000000e+00 0.0000000000000000e+00 0.0000000000000000e+00  1.1789724521622967e+01 -8.7939077057886657e+00 0.0000000000000000e+00 -8.7939077057886657e+00 2.1946214982831769e+01 0.0000000000000000e+00 0.0000000000000000e+00 0.0000000000000000e+00 0.0000000000000000e+00  2.7643574530968966e+01 -4.2496825225739565e+00 0.0000000000000000e+00 -4.2496825225739565e+00 9.7045723508944306e+00 0.0000000000000000e+00 0.0000000000000000e+00 0.0000000000000000e+00 0.0000000000000000e+00  3.4523975202622090e+01 1.8860244099191121e+01 0.0000000000000000e+00 1.8860244099191121e+01 2.6611088520346651e+00 0.0000000000000000e+00 0.0000000000000000e+00 0.0000000000000000e+00 0.0000000000000000e+00  5.5063532175960802e+01 1.5766760333457494e+01 0.0000000000000000e+00 1.5766760333457494e+01 -2.2394689700206719e+01 0.0000000000000000e+00 0.0000000000000000e+00 0.0000000000000000e+00 0.0000000000000000e+00  7.9221224253463845e+01 -8.4800798874512822e+00 0.0000000000000000e+00 -8.4800798874512822e+00 -5.0647738058582547e+01 0.0000000000000000e+00 0.0000000000000000e+00 0.0000000000000000e+00 0.0000000000000000e+00  7.8623898807250015e+01 -2.3226328481962572e+01 0.0000000000000000e+00 -2.3226328481962572e+01 -3.9744332694132282e+01 0.0000000000000000e+00 0.0000000000000000e+00 0.0000000000000000e+00 0.0000000000000000e+00  2.4353143595585443e+01 2.2415336061423641e+01 0.0000000000000000e+00 2.2415336061423641e+01 3.0198559269558003e+00 0.0000000000000000e+00 0.0000000000000000e+00 0.0000000000000000e+00 0.0000000000000000e+00  1.6356972578899875e+01 2.4852415800103156e+01 0.0000000000000000e+00 2.4852415800103156e+01 1.3762328530835031e+01 0.0000000000000000e+00 0.0000000000000000e+00 0.0000000000000000e+00 0.0000000000000000e+00  -1.6150807737009494e+01 1.0468434795516510e+00 0.0000000000000000e+00 1.0468434795516510e+00 4.7449806238900692e+01 0.0000000000000000e+00 0.0000000000000000e+00 0.0000000000000000e+00 0.0000000000000000e+00  -5.1354529332988683e+01 1.9184137516528068e+01 0.0000000000000000e+00 1.9184137516528068e+01 7.6929011672126109e+01 0.0000000000000000e+00 0.0000000000000000e+00 0.0000000000000000e+00 0.0000000000000000e+00  -1.4457925442972089e+01 1.6541173442244755e+01 0.0000000000000000e+00 1.6541173442244755e+01 4.0786761589583655e+01 0.0000000000000000e+00 0.0000000000000000e+00 0.0000000000000000e+00 0.0000000000000000e+00  1.2851211119939745e+01 -1.1772940771621805e+00 0.0000000000000000e+00 -1.1772940771621805e+00 2.6373713951369215e+01 0.0000000000000000e+00 0.0000000000000000e+00 0.0000000000000000e+00 0.0000000000000000e+00  1.7340169260993562e+01 2.3036450005528189e-01 0.0000000000000000e+00 2.3036450005528189e-01 1.7967544222648627e+01 0.0000000000000000e+00 0.0000000000000000e+00 0.0000000000000000e+00 0.0000000000000000e+00  2.5596738278966107e+01 9.3601240451667422e+00 0.0000000000000000e+00 9.3601240451667422e+00 2.4138607448647758e+00 0.0000000000000000e+00 0.0000000000000000e+00 0.0000000000000000e+00 0.0000000000000000e+00  7.1467302453540995e+01 3.8040030854884832e+00 0.0000000000000000e+00 3.8040030854884832e+00 -4.2033515995771133e+01 0.0000000000000000e+00 0.0000000000000000e+00 0.0000000000000000e+00 0.0000000000000000e+00  8.4434661196114092e+01 -3.6449212766020104e+01 0.0000000000000000e+00 -3.6449212766020104e+01 -7.5854555336474306e+01 0.0000000000000000e+00 0.0000000000000000e+00 0.0000000000000000e+00 0.0000000000000000e+00  3.8417638624455385e+01 -3.0868493953752708e+01 0.0000000000000000e+00 -3.0868493953752708e+01 -2.7637991998165621e+01 0.0000000000000000e+00 0.0000000000000000e+00 0.0000000000000000e+00 0.0000000000000000e+00  6.9137798890051183e+00 -1.0232897608520933e+01 0.0000000000000000e+00 -1.0232897608520933e+01 1.1616609954349867e+01 0.0000000000000000e+00 0.0000000000000000e+00 0.0000000000000000e+00 0.0000000000000000e+00  -3.4908176809346735e+01 -2.2782363947119077e+01 0.0000000000000000e+00 -2.2782363947119077e+01 7.0142533236227010e+01 0.0000000000000000e+00 0.0000000000000000e+00 0.0000000000000000e+00 0.0000000000000000e+00  -9.1118452450948084e+01 9.1834828041846261e+00 0.0000000000000000e+00 9.1834828041846261e+00 1.1903334705790914e+02 0.0000000000000000e+00 0.0000000000000000e+00 0.0000000000000000e+00 0.0000000000000000e+00  -5.8433073594841055e+01 8.3846356958976727e+01 0.0000000000000000e+00 8.3846356958976727e+01 7.4559854572167154e+01 0.0000000000000000e+00 0.0000000000000000e+00 0.0000000000000000e+00 0.0000000000000000e+00  -8.3572621464475816e+00 -1.4488150660084063e+01 0.0000000000000000e+00 -1.4488150660084063e+01 2.4939646136357716e+01 0.0000000000000000e+00 0.0000000000000000e+00 0.0000000000000000e+00 0.0000000000000000e+00  -7.2560613000777465e+01 6.8151239858213430e+01 0.0000000000000000e+00 6.8151239858213430e+01 -3.7873430799440079e+01 0.0000000000000000e+00 0.0000000000000000e+00 0.0000000000000000e+00 0.0000000000000000e+00  2.2034031581184738e+02 1.3376971005978839e+02 0.0000000000000000e+00 1.3376971005978839e+02 4.5636981921966274e+01 0.0000000000000000e+00 0.0000000000000000e+00 0.0000000000000000e+00 0.0000000000000000e+00  1.1069885928985986e+01 6.6059611846606359e+01 0.0000000000000000e+00 6.6059611846606359e+01 7.9505162620433927e+00 0.0000000000000000e+00 0.0000000000000000e+00 0.0000000000000000e+00 0.0000000000000000e+00  2.7169671907345272e-01 -1.4811337420561262e+02 0.0000000000000000e+00 -1.4811337420561262e+02 -1.4091284546643317e+00 0.0000000000000000e+00 0.0000000000000000e+00 0.0000000000000000e+00 0.0000000000000000e+00  6.9266601364193370e-01 9.4414985487961047e+00 0.0000000000000000e+00 9.4414985487961047e+00 -2.8846758066534385e+01 0.0000000000000000e+00 0.0000000000000000e+00 0.0000000000000000e+00 0.0000000000000000e+00  1.7124290183137074e+01 6.7150016821545520e+01 0.0000000000000000e+00 6.7150016821545520e+01 2.1923157261986429e+01 0.0000000000000000e+00 0.0000000000000000e+00 0.0000000000000000e+00 0.0000000000000000e+00  2.8744672261067816e+01 5.5726199128221225e+01 0.0000000000000000e+00 5.5726199128221225e+01 1.6374682849783174e+01 0.0000000000000000e+00 0.0000000000000000e+00 0.0000000000000000e+00 0.0000000000000000e+00  2.0544694416305887e+01 3.2679671534769057e+01 0.0000000000000000e+00 3.2679671534769057e+01 3.3672158397503622e+01 0.0000000000000000e+00 0.0000000000000000e+00 0.0000000000000000e+00 0.0000000000000000e+00  -2.4056039645285274e+01 -5.3851574017228183e-02 0.0000000000000000e+00 -5.3851574017228183e-02 -2.6513063137837016e+00 0.0000000000000000e+00 0.0000000000000000e+00 0.0000000000000000e+00 0.0000000000000000e+00  -6.9903466089738542e+00 -5.0181540588052975e+00 0.0000000000000000e+00 -5.0181540588052975e+00 -8.4079489433271917e+00 0.0000000000000000e+00 0.0000000000000000e+00 0.0000000000000000e+00 0.0000000000000000e+00  3.3870820620688149e+00 1.3431431134481299e+01 0.0000000000000000e+00 1.3431431134481299e+01 3.4288583038734561e+00 0.0000000000000000e+00 0.0000000000000000e+00 0.0000000000000000e+00 0.0000000000000000e+00  1.9380969818735054e+00 1.1595058932834913e+01 0.0000000000000000e+00 1.1595058932834913e+01 1.9249015023203033e+00 0.0000000000000000e+00 0.0000000000000000e+00 0.0000000000000000e+00 0.0000000000000000e+00  3.1245280140062786e+00 1.1252134345308631e+01 0.0000000000000000e+00 1.1252134345308631e+01 3.2703064142089904e+00 0.0000000000000000e+00 0.0000000000000000e+00 0.0000000000000000e+00 0.0000000000000000e+00  -2.1227723134659717e+00 -5.0282368401289446e-01 0.0000000000000000e+00 -5.0282368401289446e-01 -3.6414661630298477e+00 0.0000000000000000e+00 0.0000000000000000e+00 0.0000000000000000e+00 0.0000000000000000e+00  3.7655641861056472e+00 -1.2864788451497532e+01 0.0000000000000000e+00 -1.2864788451497532e+01 5.0465971575183746e+00 0.0000000000000000e+00 0.0000000000000000e+00 0.0000000000000000e+00 0.0000000000000000e+00  -1.5044301345858859e+00 -1.0896944979659134e+01 0.0000000000000000e+00 -1.0896944979659134e+01 -1.6824924262319794e+00 0.0000000000000000e+00 0.0000000000000000e+00 0.0000000000000000e+00 0.0000000000000000e+00  1.2454968305878113e+01 5.2226154920934098e+00 0.0000000000000000e+00 5.2226154920934098e+00 1.2484689758563457e+01 0.0000000000000000e+00 0.0000000000000000e+00 0.0000000000000000e+00 0.0000000000000000e+00  8.5455551267520562e+00 -4.5304142959159993e-01 0.0000000000000000e+00 -4.5304142959159982e-01 8.7446338948264337e+00 0.0000000000000000e+00 0.0000000000000000e+00 0.0000000000000000e+00 0.0000000000000000e+00  -2.1384598245927354e+01 -5.4841812883618992e+01 0.0000000000000000e+00 -5.4841812883618992e+01 -1.5730692008499053e+01 0.0000000000000000e+00 0.0000000000000000e+00 0.0000000000000000e+00 0.0000000000000000e+00  1.2867953919652436e+01 -1.3895584059276198e+01 0.0000000000000000e+00 -1.3895584059276198e+01 1.2815342828609403e+01 0.0000000000000000e+00 0.0000000000000000e+00 0.0000000000000000e+00