<?xml version="1.0"?>
<VTKFile type="UnstructuredGrid"  version="0.1"  >
<UnstructuredGrid>
<Piece  NumberOfPoints="4978" NumberOfCells="9630">
<Points>
<DataArray  type="Float64"  NumberOfComponents="3"  format="ascii">0 1.5 0  0 0 0  0.06190941752361886 0 0  0.06190941752361886 0.02304324263930277 0  0.07687367483109155 0.06663263502519032 0  0.1051805799723963 0.1030013474942385 0  0.1437626405485843 0.128208265731708 0  0.1884388916338735 0.1395218290209338 0  0.2343679681997119 0.1357160372315063 0  0.2765727421371398 0.117203306956754 0  0.3104796713154951 0.0859897797765535 0  0.3324144138380889 0.04545792568865569 0  0.34 0 0  0.4722134970410927 0 0  0.4722134970410927 0.02388743731615415 0  0.4894717723551502 0.0684361811740563 0  0.5216574972706967 0.1037422395464312 0  0.5644238112906292 0.1250373336124665 0  0.6119948867302293 0.1294454429183545 0  0.6579459862509499 0.1163712278761581 0  0.6960711592386857 0.08758043367405244 0  0.7212213898225662 0.04696141660432988 0  0.73 0 0  0.85 0 0  0.857341522555727 0.04635254915624212 0  0.8786474508437579 0.08816778784387098 0  0.9118322121561291 0.1213525491562421 0  0.9536474508437579 0.142658477444273 0  1 0.15 0  1.046352549156242 0.142658477444273 0  1.088167787843871 0.1213525491562421 0  1.121352549156242 0.08816778784387097 0  1.142658477444273 0.04635254915624211 0  1.15 0 0  1.461909417523619 0 0  1.461909417523619 0.02304324263930277 0  1.476873674831092 0.06663263502519032 0  1.505180579972396 0.1030013474942385 0  1.543762640548584 0.128208265731708 0  1.588438891633874 0.1395218290209338 0  1.634367968199712 0.1357160372315063 0  1.67657274213714 0.117203306956754 0  1.710479671315495 0.0859897797765535 0  1.732414413838089 0.04545792568865569 0  1.74 0 0  1.78 0 0  1.789134456098646 0.04592201188381079 0  1.815147186257614 0.08485281374238571 0  1.854077988116189 0.1108655439013544 0  1.9 0.12 0  1.945922011883811 0.1108655439013544 0  1.984852813742386 0.08485281374238569 0  2.010865543901355 0.04592201188381077 0  2.02 0 0  2.161909417523619 0 0  2.161909417523619 0.02304324263930277 0  2.176873674831092 0.06663263502519032 0  2.205180579972396 0.1030013474942385 0  2.243762640548584 0.128208265731708 0  2.288438891633873 0.1395218290209338 0  2.334367968199712 0.1357160372315063 0  2.37657274213714 0.117203306956754 0  2.410479671315495 0.0859897797765535 0  2.432414413838089 0.04545792568865569 0  2.44 0 0  2.472213497041093 0 0  2.472213497041093 0.02388743731615415 0  2.48947177235515 0.0684361811740563 0  2.521657497270697 0.1037422395464312 0  2.564423811290629 0.1250373336124665 0  2.611994886730229 0.1294454429183545 0  2.65794598625095 0.1163712278761581 0  2.696071159238686 0.08758043367405244 0  2.721221389822567 0.04696141660432988 0  2.73 0 0  3 0 0  3 1.5 0  0 0.75 0  3 0.75 0  1.5 1.5 0  0 0.375 0  0 0.1875 0  0 0.09375 0  0.75 1.5 0  2.25 1.5 0  1.137279452465634 0.8667483509386543 0  2.055384907633385 0.8149748422668953 0  0.5545701656450307 0.9454298343549693 0  2.545804583542266 1.045804583542266 0  2.462951104370831 0.5854482317237805 0  1.6063536999151 1.018574336065804 0  0.7683179692414909 0.5511078775270282 0  1.647896012796697 0.5780189144999826 0  1.875 1.5 0  0.3683226130580748 0.5893782185394094 0  0.375 1.5 0  0 1.125 0  3 0.375 0  1.125 1.5 0  3 1.125 0  2.625 1.5 0  1.247216233241016 0.4851891764902285 0  0.8779404074027722 1.143194262378568 0  1.992337703792022 0.4642129848858538 0  2.200035536160075 1.144037289792772 0  1.3125 1.206118267007311 0  1.882280687299076 1.18026905614258 0  0.8375010042452264 0.8437030129736524 0  0.2703628106324028 0.8673582108832857 0  0.336944444033578 1.181320038574892 0  1.424720841531434 0.7792108746582741 0  2.763716218670896 0.5625 0  0.6112325230261646 1.216037756380734 0  2.429292395855053 1.293345775631689 0  2.798691155259055 0.9375 0  2.340750225085827 0.8450755885956063 0  2.74506315455788 1.24506315455788 0  0.4115012634770826 0.3359864655288552 0  1.6875 1.5 0  1.553212834656815 1.259295117559057 0  1.783849920010049 0.8130750647527071 0  2.590242300399914 0.800172794523538 0  2.206538789959823 0.6067588023913982 0  1.022769083327432 0.627137676743421 0  2.0625 1.5 0  2.566013274303806 0.3667751817948443 0  2.317230353528816 0.3853650267397287 0  0.9546600707351991 0.3912757388497677 0  1.76490060939521 0.3540000691256479 0  1.398169292756645 0.3089248951275104 0  0.1875 1.5 0  0.6961815191548208 0.3380429757712475 0  0.6390751493076395 0.7361434669345621 0  1.385952842918209 0.9972233609662619 0  1.082019261833385 1.265823315390121 0  2.784258672215756 0.3048233224522298 0  0 0.5625 0  0.2130557952202133 0.4325455696870932 0  2.110276358430479 0.2903936515686117 0  0 1.3125 0  0.5618175915722093 0.5022778936897083 0  1.438605690073396 0.5702366817214194 0  1.851778102902867 0.6169409446553686 0  0.9375 1.5 0  1.918499765346388 0.9737703250858507 0  1.066617221574711 1.060327143126178 0  0.17830064634795 0.65625 0  1.139464543633635 0.3182162642668528 0  1.214887260891528 0.6824917486258804 0  0.4470960700565646 0.7803305254813445 0  2.056073894593081 1.292965518236122 0  0.7800417460951754 1.309431349558015 0  0.7102942521579887 1.054059105222724 0  2.772203778896419 0.7508393899039921 0  3 0.9375 0  2.4375 1.5 0  0.5625 1.5 0  3 0.5625 0  1.3125 1.5 0  0 0.9375 0  3 1.3125 0  2.8125 1.5 0  3 0.1875 0  1.74009613212014 1.312845810865967 0  0.1858279553328271 1.04932632064409 0  1.582414108002925 0.3243096672004901 0  0.4576542986122824 1.328517530191622 0  1.30595470876181 0 0  0.1616828829631953 1.229471150973137 0  1.600689448835705 0.8342777580615786 0  2.184954406689295 0.9543424310663166 0  2.356848459734244 1.033731425282726 0  2.249618867339344 1.318565528322325 0  2.031012140730151 0.6383085966483963 0  1.264473591492607 0.1926369230867345 0  1.93294708275428 0.2969945700235964 0  1.406271966518558 1.353045118606616 0  0.2855042944080262 1.351202341158466 0  2.163692386827529 0.4469681835123645 0  2.058709899218631 1.05982604745508 0  1.21875 1.361760465218127 0  1.232585115983139 1.060656719142284 0  1.682328919476849 1.161572426192166 0  0.4864612871934715 1.100927295036068 0  2.842393003195402 0.1547034389615206 0  1.901710724058898 1.340659870484523 0  2.578488906869203 1.212378831230944 0  0.346730023619794 1.013455011579226 0  1.758789788261688 0.970834021568154 0  0.9209577900333827 0.984909924281538 0  2.461973640748163 0.2490632223012221 0  2.833434714842781 1.102015011431888 0  1.485476187845101 1.118115752354218 0  0.7869575052851041 0.2127716822913992 0  1.091585464669657 0.4673676525872368 0  0.9308375558444295 1.286291202675726 0  2.609275627299536 0.5207885309723005 0  2.859418780372727 0.4404724026784034 0  0.1368795735450182 0.2913992261536034 0  0.5088670694303536 0.6431238265444117 0  0.9924988599062848 0.7887715626383616 0  0.8674753477047706 0.6821390867986818 0  0.6993572585883594 0.9038049302516018 0  1.53924450853783 0.6818717864694561 0  1.27954362181495 0.818196911265721 0  2.885754890315292 0.65625 0  0.1199579452929171 0.84375 0  0.3101130847613819 0.7251157056441525 0  2.683488575489726 1.10528265125029 0  2.637912450120847 1.350340704724588 0  0.65625 1.387568746661148 0  2.204969505432462 0.7645924845263576 0  2.34230217156612 0.6870332922078795 0  2.458336421316689 0.930056573232228 0  1.547170662421109 0.4687109428674099 0  0.55426355401875 0.2785752421136156 0  1.927690911684502 0.7425770788416013 0  2.650983472818039 0.6639703826486528 0  0.2807744135836687 0.2731407085328489 0  2.697063502273202 0.4130460425434029 0  1.768721210125562 0.4985606178023466 0  1.59375 1.394491048145999 0  1.03125 1.39617417476255 0  2.649124789533757 0.9376608889715211 0  2.899345577629528 0.84375 0  2.448792339301353 1.151333513094988 0  2.455516477512143 0.7671738041202795 0  0.1479512725554237 1.367277900867101 0  1.733007556765436 0.6856365299097277 0  2.865 0 0  0.407900401917371 0.1920322062602331 0  1.482893533441057 0.9020086108979886 0  2.902194538181383 1.21875 0  2.860324471164851 1.360324471164851 0  0.9128790560808855 0.5311054613533476 0  0.7396036279203969 1.183264973390871 0  1.379392725427689 0.4456149894503371 0  0.8305263666170877 0.339868595109382 0  2.352639297837627 1.399880277695907 0  2.15625 1.5 0  2.32277762299786 1.203473773731512 0  1.818471673600783 0.235727380341035 0  1.269129800285538 0.3222823294390822 0  2.329228807632851 0.5297324129610972 0  0.430777275012463 0.469645907614299 0  1.390502090335328 0.1630587681988043 0  1.149408636841162 1.157447166816889 0  1.687853147042319 0.2519031106491252 0  0.3941048876243997 0.8956837842542459 0  1.877835046604575 0.410724628626283 0  1.348230251479045 0.6691802479050837 0  2.336954765206726 0.2613063289913201 0  2.514033953321691 1.393470229958569 0  0 0.46875 0  0.1287800079303892 0.5340043503292357 0  2.441328451749267 0.3721441168812449 0  0.9333932382689634 0.2670516659043625 0  1.13959172768211 0.5827503401695603 0  0.8703665929291606 1.395134656069543 0  1.240468926246127 0.9364063612525604 0  1.433475419570003 1.229904687600933 0  1.020534477629395 0.9101139083191684 0  1.108777781305164 0.7462713331880694 0  0.6468125623079457 0.6038935958199032 0  1.665312060212151 0.428962863572448 0  0.2512528931669099 0.5500044694745148 0  2.66971919386773 0.2450375495263612 0  2.901855502368762 0.2640467328343441 0  2.063534245742155 0.9373123558679215 0  2.031795413587333 0.1972457754676831 0  1.836924180675512 1.065887991891963 0  1.001601941364679 1.16852535211421 0  0.8051266927803291 0.9581030042697194 0  0.7620228346493961 0.7461373576581022 0  3 1.03125 0  2.084817260746984 1.176705869274554 0  2.085981885570153 0.5347538843754811 0  1.496744890324478 0.239335226969819 0  1.894594308711337 0.8570406362709689 0  1.78125 1.5 0  2.109375 1.394928085212741 0  2.71875 1.5 0  0.4943575340553394 1.217544978302146 0  0.5937185858435849 1.055241883498284 0  2.227680725187669 0.3075299344665331 0  0.5158109084499103 0.3891628929402524 0  1.96875 1.5 0  0.6036564600183
[...]
<PointData  Tensors="f_530"> 
<DataArray  type="Float64"  Name="f_530"  NumberOfComponents="9" format="ascii">-8.4136036168197084e+00 -1.3332181220034733e+00 0.0000000000000000e+00 -1.3332181220034733e+00 -1.1755350005995828e+01 0.0000000000000000e+00 0.0000000000000000e+00 0.0000000000000000e+00 0.0000000000000000e+00  3.6636236904605624e+01 3.3194868233922281e+00 0.0000000000000000e+00 3.3194868233922281e+00 2.9411663280071270e+01 0.0000000000000000e+00 0.0000000000000000e+00 0.0000000000000000e+00 0.0000000000000000e+00  2.5371374108069752e+01 2.7530213361688509e+00 0.0000000000000000e+00 2.7530213361688509e+00 3.3318375423843953e+01 0.0000000000000000e+00 0.0000000000000000e+00 0.0000000000000000e+00 0.0000000000000000e+00  4.7287193601932067e+01 1.4312014384554315e+01 0.0000000000000000e+00 1.4312014384554315e+01 1.7947818613848806e+01 0.0000000000000000e+00 0.0000000000000000e+00 0.0000000000000000e+00 0.0000000000000000e+00  6.4657221232960524e+01 5.6230881284495187e+00 0.0000000000000000e+00 5.6230881284495187e+00 -1.5923787704311803e+01 0.0000000000000000e+00 0.0000000000000000e+00 0.0000000000000000e+00 0.0000000000000000e+00  8.5365941971490230e+01 8.8265110001855067e+00 0.0000000000000000e+00 8.8265110001855067e+00 -3.1552862561237259e+01 0.0000000000000000e+00 0.0000000000000000e+00 0.0000000000000000e+00 0.0000000000000000e+00  5.5190346707694729e+01 -5.8970151928211383e+00 0.0000000000000000e+00 -5.8970151928211383e+00 -4.8735728329738324e+00 0.0000000000000000e+00 0.0000000000000000e+00 0.0000000000000000e+00 0.0000000000000000e+00  3.3576722819408907e+01 2.7562983273543811e+01 0.0000000000000000e+00 2.7562983273543811e+01 1.4266753521487081e+01 0.0000000000000000e+00 0.0000000000000000e+00 0.0000000000000000e+00 0.0000000000000000e+00  3.9952179823893502e+01 5.0410406769809960e+01 0.0000000000000000e+00 5.0410406769809960e+01 2.8465882329877599e+00 0.0000000000000000e+00 0.0000000000000000e+00 0.0000000000000000e+00 0.0000000000000000e+00  1.3285175881821285e+01 1.0875944299475920e+01 0.0000000000000000e+00 1.0875944299475920e+01 5.0826106233214716e+01 0.0000000000000000e+00 0.0000000000000000e+00 0.0000000000000000e+00 0.0000000000000000e+00  -4.3847025585062859e+01 2.8996479242751693e+01 0.0000000000000000e+00 2.8996479242751693e+01 8.7574759541588293e+01 0.0000000000000000e+00 0.0000000000000000e+00 0.0000000000000000e+00 0.0000000000000000e+00  -3.4885643962554248e+01 5.5379524959500685e+01 0.0000000000000000e+00 5.5379524959500685e+01 8.4295831088090580e+01 0.0000000000000000e+00 0.0000000000000000e+00 0.0000000000000000e+00 0.0000000000000000e+00  3.6206839780037448e+01 9.6884097060788825e+00 0.0000000000000000e+00 9.6884097060788825e+00 3.0612738021588900e+01 0.0000000000000000e+00 0.0000000000000000e+00 0.0000000000000000e+00 0.0000000000000000e+00  2.4553798910488322e+01 3.4226921033209157e-01 0.0000000000000000e+00 3.4226921033209157e-01 2.2202497479914996e+01 0.0000000000000000e+00 0.0000000000000000e+00 0.0000000000000000e+00 0.0000000000000000e+00  4.1312408637362473e+01 1.2478789809211827e+01 0.0000000000000000e+00 1.2478789809211827e+01 1.5072081102908127e+01 0.0000000000000000e+00 0.0000000000000000e+00 0.0000000000000000e+00 0.0000000000000000e+00  2.6974684120138694e+01 1.2764170145850654e+01 0.0000000000000000e+00 1.2764170145850654e+01 2.1382151691495277e+01 0.0000000000000000e+00 0.0000000000000000e+00 0.0000000000000000e+00 0.0000000000000000e+00  -1.6708658173684515e+01 1.7076549288880660e+01 0.0000000000000000e+00 1.7076549288880660e+01 7.3281087431237736e+01 0.0000000000000000e+00 0.0000000000000000e+00 0.0000000000000000e+00 0.0000000000000000e+00  -9.8257092612469368e+00 4.2292613570768459e+01 0.0000000000000000e+00 4.2292613570768459e+01 6.1221920854800203e+01 0.0000000000000000e+00 0.0000000000000000e+00 0.0000000000000000e+00 0.0000000000000000e+00  6.0759046569407138e+00 -5.2008374219709044e+00 0.0000000000000000e+00 -5.2008374219709044e+00 5.0550040380685473e+01 0.0000000000000000e+00 0.0000000000000000e+00 0.0000000000000000e+00 0.0000000000000000e+00  -2.6266331125916473e+01 -3.7085059484447505e+01 0.0000000000000000e+00 -3.7085059484447505e+01 7.9951324819300126e+01 0.0000000000000000e+00 0.0000000000000000e+00 0.0000000000000000e+00 0.0000000000000000e+00  1.0984092831815749e+01 -1.2612078792534451e+01 0.0000000000000000e+00 -1.2612078792534451e+01 3.2245114146218597e+01 0.0000000000000000e+00 0.0000000000000000e+00 0.0000000000000000e+00 0.0000000000000000e+00  3.6902557443901159e+01 -1.5529291628814276e+01 0.0000000000000000e+00 -1.5529291628814276e+01 1.0061653454530095e+01 0.0000000000000000e+00 0.0000000000000000e+00 0.0000000000000000e+00 0.0000000000000000e+00  2.6812372293170050e+01 1.9980362752485472e+00 0.0000000000000000e+00 1.9980362752485472e+00 2.2631030738971344e+01 0.0000000000000000e+00 0.0000000000000000e+00 0.0000000000000000e+00 0.0000000000000000e+00  6.2931997096157088e-01 -8.6535333689347684e+00 0.0000000000000000e+00 -8.6535333689347684e+00 5.5626304095585539e+01 0.0000000000000000e+00 0.0000000000000000e+00 0.0000000000000000e+00 0.0000000000000000e+00  -1.3587659133172821e+01 -4.6598876017837547e+01 0.0000000000000000e+00 -4.6598876017837547e+01 6.5273669815868743e+01 0.0000000000000000e+00 0.0000000000000000e+00 0.0000000000000000e+00 0.0000000000000000e+00  -5.1807555627384446e+01 -2.5146550119893455e+01 0.0000000000000000e+00 -2.5146550119893455e+01 8.8764849614210476e+01 0.0000000000000000e+00 0.0000000000000000e+00 0.0000000000000000e+00 0.0000000000000000e+00  -2.0114422229649801e+01 -1.7032454493118980e+01 0.0000000000000000e+00 -1.7032454493118980e+01 6.4802881632370273e+01 0.0000000000000000e+00 0.0000000000000000e+00 0.0000000000000000e+00 0.0000000000000000e+00  3.0638241031920259e+01 -3.3147290731476240e+01 0.0000000000000000e+00 -3.3147290731476240e+01 1.7691799992687837e+01 0.0000000000000000e+00 0.0000000000000000e+00 0.0000000000000000e+00 0.0000000000000000e+00  3.0384896700419620e+01 -3.2019040153930391e+01 0.0000000000000000e+00 -3.2019040153930391e+01 1.0041047472979860e+01 0.0000000000000000e+00 0.0000000000000000e+00 0.0000000000000000e+00 0.0000000000000000e+00  4.2330061036651230e+01 3.8506306102227246e+00 0.0000000000000000e+00 3.8506306102227246e+00 1.0093266270869143e+00 0.0000000000000000e+00 0.0000000000000000e+00 0.0000000000000000e+00 0.0000000000000000e+00  7.1366059105100931e+01 1.3099998681365321e+01 0.0000000000000000e+00 1.3099998681365321e+01 -3.1945845527963769e+01 0.0000000000000000e+00 0.0000000000000000e+00 0.0000000000000000e+00 0.0000000000000000e+00  6.4546861453126866e+01 -2.0036109853211523e+00 0.0000000000000000e+00 -2.0036109853211523e+00 -1.3034637227539239e+01 0.0000000000000000e+00 0.0000000000000000e+00 0.0000000000000000e+00 0.0000000000000000e+00  3.4152870510917943e+01 -1.0250004545294795e+01 0.0000000000000000e+00 -1.0250004545294795e+01 1.6358704210569851e+01 0.0000000000000000e+00 0.0000000000000000e+00 0.0000000000000000e+00 0.0000000000000000e+00  2.5810455469169273e+01 -4.2931353959612234e-01 0.0000000000000000e+00 -4.2931353959612234e-01 2.0428471599656465e+01 0.0000000000000000e+00 0.0000000000000000e+00 0.0000000000000000e+00 0.0000000000000000e+00  3.0552273100795894e+01 -4.7094142892039246e+00 0.0000000000000000e+00 -4.7094142892039246e+00 2.0309077727120521e+01 0.0000000000000000e+00 0.0000000000000000e+00 0.0000000000000000e+00 0.0000000000000000e+00  -1.8772255501301490e+01 -2.4071316204104150e+01 0.0000000000000000e+00 -2.4071316204104150e+01 5.4629486834349017e+01 0.0000000000000000e+00 0.0000000000000000e+00 0.0000000000000000e+00 0.0000000000000000e+00  -2.6007248946299743e+01 -3.3443343666739629e+01 0.0000000000000000e+00 -3.3443343666739622e+01 6.6322656161080502e+01 0.0000000000000000e+00 0.0000000000000000e+00 0.0000000000000000e+00 0.0000000000000000e+00  -2.5812346887627747e+01 -1.7256907970849845e+01 0.0000000000000000e+00 -1.7256907970849845e+01 6.5580517435147200e+01 0.0000000000000000e+00 0.0000000000000000e+00 0.0000000000000000e+00 0.0000000000000000e+00  1.8705669244057997e+01 -2.5179551185676171e+01 0.0000000000000000e+00 -2.5179551185676171e+01 2.1182751559221650e+01 0.0000000000000000e+00 0.0000000000000000e+00 0.0000000000000000e+00 0.0000000000000000e+00  2.8312289885485995e+01 -4.3151339017136053e+01 0.0000000000000000e+00 -4.3151339017136053e+01 -3.8008041954401741e+00 0.0000000000000000e+00 0.0000000000000000e+00 0.0000000000000000e+00 0.0000000000000000e+00  4.3819071693403750e+01 -1.5648371054601899e+00 0.0000000000000000e+00 -1.5648371054601899e+00 -7.7755349846339650e+00 0.0000000000000000e+00 0.0000000000000000e+00 0.0000000000000000e+00 0.0000000000000000e+00  8.1995628038035065e+01 2.4471013792838882e+01 0.0000000000000000e+00 2.4471013792838882e+01 -3.5257257272577313e+01 0.0000000000000000e+00 0.0000000000000000e+00 0.0000000000000000e+00 0.0000000000000000e+00  8.2687522084804243e+01 -9.0444251110057294e+00 0.0000000000000000e+00 -9.0444251110057294e+00 -3.5565583744747869e+01 0.0000000000000000e+00 0.0000000000000000e+00 0.0000000000000000e+00 0.0000000000000000e+00  3.8976670694169897e+01 -2.1335965659623689e+01 0.0000000000000000e+00 -2.1335965659623689e+01 3.1293214355980110e+00 0.0000000000000000e+00 0.0000000000000000e+00 0.0000000000000000e+00 0.0000000000000000e+00  3.0357460779126388e+01 -4.3586949488942253e+00 0.0000000000000000e+00 -4.3586949488942262e+00 8.1740699761326070e+00 0.0000000000000000e+00 0.0000000000000000e+00 0.0000000000000000e+00 0.0000000000000000e+00  1.8285918968990675e+01 -2.9864034551868639e+00 0.0000000000000000e+00 -2.9864034551868639e+00 3.8771747091707098e+01 0.0000000000000000e+00 0.0000000000000000e+00 0.0000000000000000e+00 0.0000000000000000e+00  5.2627612032621531e+00 -6.7457741654567007e+00 0.0000000000000000e+00 -6.7457741654567007e+00 3.7939870783276163e+01 0.0000000000000000e+00 0.0000000000000000e+00 0.0000000000000000e+00 0.0000000000000000e+00  1.3854579953467792e+00 -1.2157944604910130e+01 0.0000000000000000e+00 -1.2157944604910130e+01 4.0705194772434616e+01 0.0000000000000000e+00 0.0000000000000000e+00 0.0000000000000000e+00 0.0000000000000000e+00  3.1878088011585493e+01 -4.0992120897713797e+01 0.0000000000000000e+00 -4.0992120897713797e+01 1.2912404713708192e+01 0.0000000000000000e+00 0.0000000000000000e+00 0.0000000000000000e+00 0.0000000000000000e+00  2.1130720394679638e+01 -5.2326558416637418e+01 0.0000000000000000e+00 -5.2326558416637418e+01 1.8163534514372259e+00 0.0000000000000000e+00 0.0000000000000000e+00 0.0000000000000000e+00 0.0000000000000000e+00  5.3659024383256977e+01 1.1506640953661327e+00 0.0000000000000000e+00 1.1506640953661327e+00 -1.8094046024076420e+01 0.0000000000000000e+00 0.0000000000000000e+00 0.0000000000000000e+00 0.0000000000000000e+00  8.0477340058769371e+01 5.9885187403774198e+00 0.0000000000000000e+00 5.9885187403774198e+00 -4.2519638550294587e+01 0.0000000000000000e+00 0.0000000000000000e+00 0.0000000000000000e+00 0.0000000000000000e+00  6.2969815794534746e+01 -3.1430576343761693e+01 0.0000000000000000e+00 -3.1430576343761693e+01 -2.5578179662848321e+01 0.0000000000000000e+00 0.0000000000000000e+00 0.0000000000000000e+00 0.0000000000000000e+00  1.2098131323000962e+01 -8.4560632265657869e+00 0.0000000000000000e+00 -8.4560632265657869e+00 2.2413919857431154e+01 0.0000000000000000e+00 0.0000000000000000e+00 0.0000000000000000e+00 0.0000000000000000e+00  2.7622366347770562e+01 -4.1073944987005477e+00 0.0000000000000000e+00 -4.1073944987005477e+00 9.8879412928708579e+00 0.0000000000000000e+00 0.0000000000000000e+00 0.0000000000000000e+00 0.0000000000000000e+00  3.3902456626272730e+01 1.8108052611912672e+01 0.0000000000000000e+00 1.8108052611912672e+01 3.5265231064725056e+00 0.0000000000000000e+00 0.0000000000000000e+00 0.0000000000000000e+00 0.0000000000000000e+00  5.3000867166458271e+01 1.4963791586172649e+01 0.0000000000000000e+00 1.4963791586172649e+01 -1.9988857748988792e+01 0.0000000000000000e+00 0.0000000000000000e+00 0.0000000000000000e+00 0.0000000000000000e+00  7.5745557214891718e+01 -7.5090332346542281e+00 0.0000000000000000e+00 -7.5090332346542281e+00 -4.6420347068294404e+01 0.0000000000000000e+00 0.0000000000000000e+00 0.0000000000000000e+00 0.0000000000000000e+00  7.5759750226176962e+01 -2.1591676238752559e+01 0.0000000000000000e+00 -2.1591676238752559e+01 -3.6801028415975466e+01 0.0000000000000000e+00 0.0000000000000000e+00 0.0000000000000000e+00 0.0000000000000000e+00  2.4006821137385938e+01 2.0944307879953708e+01 0.0000000000000000e+00 2.0944307879953708e+01 3.3462152661511158e+00 0.0000000000000000e+00 0.0000000000000000e+00 0.0000000000000000e+00 0.0000000000000000e+00  1.6348579096876552e+01 2.3297633466710362e+01 0.0000000000000000e+00 2.3297633466710362e+01 1.3795447225743789e+01 0.0000000000000000e+00 0.0000000000000000e+00 0.0000000000000000e+00 0.0000000000000000e+00  -1.4150541887485478e+01 1.2139265943615072e+00 0.0000000000000000e+00 1.2139265943615072e+00 4.5560543303091144e+01 0.0000000000000000e+00 0.0000000000000000e+00 0.0000000000000000e+00 0.0000000000000000e+00  -4.7180392389093832e+01 1.7776292945759504e+01 0.0000000000000000e+00 1.7776292945759504e+01 7.3198837224908772e+01 0.0000000000000000e+00 0.0000000000000000e+00 0.0000000000000000e+00 0.0000000000000000e+00  -1.2813326420065508e+01 1.5340380779603590e+01 0.0000000000000000e+00 1.5340380779603590e+01 3.9267999693380808e+01 0.0000000000000000e+00 0.0000000000000000e+00 0.0000000000000000e+00 0.0000000000000000e+00  1.3027268123378921e+01 -1.1072703910119142e+00 0.0000000000000000e+00 -1.1072703910119142e+00 2.6273483711991553e+01 0.0000000000000000e+00 0.0000000000000000e+00 0.0000000000000000e+00 0.0000000000000000e+00  1.7451697486703104e+01 1.7643154322924823e-01 0.0000000000000000e+00 1.7643154322924823e-01 1.8152892069248495e+01 0.0000000000000000e+00 0.0000000000000000e+00 0.0000000000000000e+00 0.0000000000000000e+00  2.5399919151646163e+01 9.2324093022280103e+00 0.0000000000000000e+00 9.2324093022280103e+00 2.8130640221929402e+00 0.0000000000000000e+00 0.0000000000000000e+00 0.0000000000000000e+00 0.0000000000000000e+00  6.8632054178567159e+01 3.1961760169641686e+00 0.0000000000000000e+00 3.1961760169641686e+00 -3.9432685480500290e+01 0.0000000000000000e+00 0.0000000000000000e+00 0.0000000000000000e+00 0.0000000000000000e+00  8.0329831760666821e+01 -3.4442286536236480e+01 0.0000000000000000e+00 -3.4442286536236480e+01 -7.1009941430361962e+01 0.0000000000000000e+00 0.0000000000000000e+00 0.0000000000000000e+00 0.0000000000000000e+00  3.6663542884348566e+01 -2.9137125970736019e+01 0.0000000000000000e+00 -2.9137125970736019e+01 -2.5712088083056333e+01 0.0000000000000000e+00 0.0000000000000000e+00 0.0000000000000000e+00 0.0000000000000000e+00  7.1201592330784687e+00 -9.7275830660835343e+00 0.0000000000000000e+00 -9.7275830660835343e+00 1.1490825854227042e+01 0.0000000000000000e+00 0.0000000000000000e+00 0.0000000000000000e+00 0.0000000000000000e+00  -3.2027511603237599e+01 -2.1405642076318475e+01 0.0000000000000000e+00 -2.1405642076318475e+01 6.6452279580333183e+01 0.0000000000000000e+00 0.0000000000000000e+00 0.0000000000000000e+00 0.0000000000000000e+00  -8.4601846286172673e+01 7.2053163952949086e+00 0.0000000000000000e+00 7.2053163952949086e+00 1.1304881094811157e+02 0.0000000000000000e+00 0.0000000000000000e+00 0.0000000000000000e+00 0.0000000000000000e+00  -5.4475534928817268e+01 7.8313382705879647e+01 0.0000000000000000e+00 7.8313382705879647e+01 7.0042026859079925e+01 0.0000000000000000e+00 0.0000000000000000e+00 0.0000000000000000e+00 0.0000000000000000e+00  -8.1487670676859416e+00 -1.4334632683962107e+01 0.0000000000000000e+00 -1.4334632683962107e+01 2.4215511776504375e+01 0.0000000000000000e+00 0.0000000000000000e+00 0.0000000000000000e+00 0.0000000000000000e+00  -7.0241598392962203e+01 6.6330185406750005e+01 0.0000000000000000e+00 6.6330185406750005e+01 -3.6943032270167748e+01 0.0000000000000000e+00 0.0000000000000000e+00 0.0000000000000000e+00 0.0000000000000000e+00  2.0645760398734578e+02 1.2537616878792582e+02 0.0000000000000000e+00 1.2537616878792582e+02 4.3148994254815250e+01 0.0000000000000000e+00 0.0000000000000000e+00 0.0000000000000000e+00 0.0000000000000000e+00  1.1105178798483378e+01 6.2227641022684828e+01 0.0000000000000000e+00 6.2227641022684828e+01 8.0022695612048480e+00 0.0000000000000000e+00 0.0000000000000000e+00 0.0000000000000000e+00 0.0000000000000000e+00  5.2687779826789793e-01 -1.4015821911857256e+02 0.0000000000000000e+00 -1.4015821911857256e+02 -1.4586512442772026e+00 0.0000000000000000e+00 0.0000000000000000e+00 0.0000000000000000e+00 0.0000000000000000e+00  -3.4907545885606760e-02 8.9003930030389746e+00 0.0000000000000000e+00 8.9003930030389746e+00 -2.8388823771827763e+01 0.0000000000000000e+00 0.0000000000000000e+00 0.0000000000000000e+00 0.0000000000000000e+00  1.7217066635153412e+01 6.3210809870009470e+01 0.0000000000000000e+00 6.3210809870009470e+01 2.1924668260184774e+01 0.0000000000000000e+00 0.0000000000000000e+00 0.0000000000000000e+00 0.0000000000000000e+00  2.8504051241438201e+01 5.2109218437206906e+01 0.0000000000000000e+00 5.2109218437206906e+01 1.6770848530749987e+01 0.0000000000000000e+00 0.0000000000000000e+00 0.0000000000000000e+00 0.0000000000000000e+00  2.0870143472461542e+01 3.0650968677009732e+01 0.0000000000000000e+00 3.0650968677009732e+01 3.3510424729781306e+01 0.0000000000000000e+00 0.0000000000000000e+00 0.0000000000000000e+00 0.0000000000000000e+00  -2.3752587629161724e+01 -3.6187642849731044e-01 0.0000000000000000e+00 -3.6187642849731044e-01 -3.0194117195678563e+00 0.0000000000000000e+00 0.0000000000000000e+00 0.0000000000000000e+00 0.0000000000000000e+00  -7.0776161837449783e+00 -4.6449685760473027e+00 0.0000000000000000e+00 -4.6449685760473027e+00 -8.2884816846041414e+00 0.0000000000000000e+00 0.0000000000000000e+00 0.0000000000000000e+00 0.0000000000000000e+00  3.4195906895223653e+00 1.2411944492081545e+01 0.0000000000000000e+00 1.2411944492081545e+01 3.4501949142302699e+00 0.0000000000000000e+00 0.0000000000000000e+00 0.0000000000000000e+00 0.0000000000000000e+00  1.9592473708847034e+00 1.0714277882035372e+01 0.0000000000000000e+00 1.0714277882035372e+01 1.9509129555530536e+00 0.0000000000000000e+00 0.0000000000000000e+00 0.0000000000000000e+00 0.0000000000000000e+00  3.1589032592608794e+00 1.0398132407693428e+01 0.0000000000000000e+00 1.0398132407693428e+01 3.2879173720475121e+00 0.0000000000000000e+00 0.0000000000000000e+00 0.0000000000000000e+00 0.0000000000000000e+00  -2.1366857647105859e+00 -4.1643686589243567e-01 0.0000000000000000e+00 -4.1643686589243567e-01 -3.5580258074912128e+00 0.0000000000000000e+00 0.0000000000000000e+00 0.0000000000000000e+00 0.0000000000000000e+00  3.8394682873144443e+00 -1.1884882528853288e+01 0.0000000000000000e+00 -1.1884882528853288e+01 5.0069131674609624e+00 0.0000000000000000e+00 0.0000000000000000e+00 0.0000000000000000e+00 0.0000000000000000e+00  -1.4837431752190615e+00 -1.0068330423365017e+01 0.0000000000000000e+00 -1.0068330423365017e+01 -1.6474730851875541e+00 0.0000000000000000e+00 0.0000000000000000e+00 0.0000000000000000e+00 0.0000000000000000e+00  1.2485172935571072e+01 4.8285275831737051e+00 0.0000000000000000e+00 4.8285275831737051e+00 1.2514214683441725e+01 0.0000000000000000e+00 0.0000000000000000e+00 0.0000000000000000e+00 0.0000000000000000e+00  8.5789518821864590e+00 -4.1530816755584204e-01 0.0000000000000000e+00 -4.1530816755584204e-01 8.7650879653512686e+00 0.0000000000000000e+00 0.0000000000000000e+00 0.0000000000000000e+00 0.0000000000000000e+00  -2.0865978535785619e+01 -5.1325148610890260e+01 0.0000000000000000e+00 -5.1325148610890260e+01 -1.5706501790331936e+01 0.0000000000000000e+00 0.0000000000000000e+00 0.0000000000000000e+00 0.0000000000000000e+00  1.2892343486204897e+01 -1.2837948673740575e+01 0.0000000000000000e+00 -1.2837948673740575e+01 1.2844227118665708e+01 0.0000000000000000e+00 0.0000000000000000e+00 0.0000000000000000e+00 0