<?xml version="1.0"?>
<VTKFile type="UnstructuredGrid"  version="0.1"  >
<UnstructuredGrid>
<Piece  NumberOfPoints="4978" NumberOfCells="9630">
<Points>
<DataArray  type="Float64"  NumberOfComponents="3"  format="ascii">0 1.5 0  0 0 0  0.06190941752361886 0 0  0.06190941752361886 0.02304324263930277 0  0.07687367483109155 0.06663263502519032 0  0.1051805799723963 0.1030013474942385 0  0.1437626405485843 0.128208265731708 0  0.1884388916338735 0.1395218290209338 0  0.2343679681997119 0.1357160372315063 0  0.2765727421371398 0.117203306956754 0  0.3104796713154951 0.0859897797765535 0  0.3324144138380889 0.04545792568865569 0  0.34 0 0  0.4722134970410927 0 0  0.4722134970410927 0.02388743731615415 0  0.4894717723551502 0.0684361811740563 0  0.5216574972706967 0.1037422395464312 0  0.5644238112906292 0.1250373336124665 0  0.6119948867302293 0.1294454429183545 0  0.6579459862509499 0.1163712278761581 0  0.6960711592386857 0.08758043367405244 0  0.7212213898225662 0.04696141660432988 0  0.73 0 0  0.85 0 0  0.857341522555727 0.04635254915624212 0  0.8786474508437579 0.08816778784387098 0  0.9118322121561291 0.1213525491562421 0  0.9536474508437579 0.142658477444273 0  1 0.15 0  1.046352549156242 0.142658477444273 0  1.088167787843871 0.1213525491562421 0  1.121352549156242 0.08816778784387097 0  1.142658477444273 0.04635254915624211 0  1.15 0 0  1.461909417523619 0 0  1.461909417523619 0.02304324263930277 0  1.476873674831092 0.06663263502519032 0  1.505180579972396 0.1030013474942385 0  1.543762640548584 0.128208265731708 0  1.588438891633874 0.1395218290209338 0  1.634367968199712 0.1357160372315063 0  1.67657274213714 0.117203306956754 0  1.710479671315495 0.0859897797765535 0  1.732414413838089 0.04545792568865569 0  1.74 0 0  1.78 0 0  1.789134456098646 0.04592201188381079 0  1.815147186257614 0.08485281374238571 0  1.854077988116189 0.1108655439013544 0  1.9 0.12 0  1.945922011883811 0.1108655439013544 0  1.984852813742386 0.08485281374238569 0  2.010865543901355 0.04592201188381077 0  2.02 0 0  2.161909417523619 0 0  2.161909417523619 0.02304324263930277 0  2.176873674831092 0.06663263502519032 0  2.205180579972396 0.1030013474942385 0  2.243762640548584 0.128208265731708 0  2.288438891633873 0.1395218290209338 0  2.334367968199712 0.1357160372315063 0  2.37657274213714 0.117203306956754 0  2.410479671315495 0.0859897797765535 0  2.432414413838089 0.04545792568865569 0  2.44 0 0  2.472213497041093 0 0  2.472213497041093 0.02388743731615415 0  2.48947177235515 0.0684361811740563 0  2.521657497270697 0.1037422395464312 0  2.564423811290629 0.1250373336124665 0  2.611994886730229 0.1294454429183545 0  2.65794598625095 0.1163712278761581 0  2.696071159238686 0.08758043367405244 0  2.721221389822567 0.04696141660432988 0  2.73 0 0  3 0 0  3 1.5 0  0 0.75 0  3 0.75 0  1.5 1.5 0  0 0.375 0  0 0.1875 0  0 0.09375 0  0.75 1.5 0  2.25 1.5 0  1.137279452465634 0.8667483509386543 0  2.055384907633385 0.8149748422668953 0  0.5545701656450307 0.9454298343549693 0  2.545804583542266 1.045804583542266 0  2.462951104370831 0.5854482317237805 0  1.6063536999151 1.018574336065804 0  0.7683179692414909 0.5511078775270282 0  1.647896012796697 0.5780189144999826 0  1.875 1.5 0  0.3683226130580748 0.5893782185394094 0  0.375 1.5 0  0 1.125 0  3 0.375 0  1.125 1.5 0  3 1.125 0  2.625 1.5 0  1.247216233241016 0.4851891764902285 0  0.8779404074027722 1.143194262378568 0  1.992337703792022 0.4642129848858538 0  2.200035536160075 1.144037289792772 0  1.3125 1.206118267007311 0  1.882280687299076 1.18026905614258 0  0.8375010042452264 0.8437030129736524 0  0.2703628106324028 0.8673582108832857 0  0.336944444033578 1.181320038574892 0  1.424720841531434 0.7792108746582741 0  2.763716218670896 0.5625 0  0.6112325230261646 1.216037756380734 0  2.429292395855053 1.293345775631689 0  2.798691155259055 0.9375 0  2.340750225085827 0.8450755885956063 0  2.74506315455788 1.24506315455788 0  0.4115012634770826 0.3359864655288552 0  1.6875 1.5 0  1.553212834656815 1.259295117559057 0  1.783849920010049 0.8130750647527071 0  2.590242300399914 0.800172794523538 0  2.206538789959823 0.6067588023913982 0  1.022769083327432 0.627137676743421 0  2.0625 1.5 0  2.566013274303806 0.3667751817948443 0  2.317230353528816 0.3853650267397287 0  0.9546600707351991 0.3912757388497677 0  1.76490060939521 0.3540000691256479 0  1.398169292756645 0.3089248951275104 0  0.1875 1.5 0  0.6961815191548208 0.3380429757712475 0  0.6390751493076395 0.7361434669345621 0  1.385952842918209 0.9972233609662619 0  1.082019261833385 1.265823315390121 0  2.784258672215756 0.3048233224522298 0  0 0.5625 0  0.2130557952202133 0.4325455696870932 0  2.110276358430479 0.2903936515686117 0  0 1.3125 0  0.5618175915722093 0.5022778936897083 0  1.438605690073396 0.5702366817214194 0  1.851778102902867 0.6169409446553686 0  0.9375 1.5 0  1.918499765346388 0.9737703250858507 0  1.066617221574711 1.060327143126178 0  0.17830064634795 0.65625 0  1.139464543633635 0.3182162642668528 0  1.214887260891528 0.6824917486258804 0  0.4470960700565646 0.7803305254813445 0  2.056073894593081 1.292965518236122 0  0.7800417460951754 1.309431349558015 0  0.7102942521579887 1.054059105222724 0  2.772203778896419 0.7508393899039921 0  3 0.9375 0  2.4375 1.5 0  0.5625 1.5 0  3 0.5625 0  1.3125 1.5 0  0 0.9375 0  3 1.3125 0  2.8125 1.5 0  3 0.1875 0  1.74009613212014 1.312845810865967 0  0.1858279553328271 1.04932632064409 0  1.582414108002925 0.3243096672004901 0  0.4576542986122824 1.328517530191622 0  1.30595470876181 0 0  0.1616828829631953 1.229471150973137 0  1.600689448835705 0.8342777580615786 0  2.184954406689295 0.9543424310663166 0  2.356848459734244 1.033731425282726 0  2.249618867339344 1.318565528322325 0  2.031012140730151 0.6383085966483963 0  1.264473591492607 0.1926369230867345 0  1.93294708275428 0.2969945700235964 0  1.406271966518558 1.353045118606616 0  0.2855042944080262 1.351202341158466 0  2.163692386827529 0.4469681835123645 0  2.058709899218631 1.05982604745508 0  1.21875 1.361760465218127 0  1.232585115983139 1.060656719142284 0  1.682328919476849 1.161572426192166 0  0.4864612871934715 1.100927295036068 0  2.842393003195402 0.1547034389615206 0  1.901710724058898 1.340659870484523 0  2.578488906869203 1.212378831230944 0  0.346730023619794 1.013455011579226 0  1.758789788261688 0.970834021568154 0  0.9209577900333827 0.984909924281538 0  2.461973640748163 0.2490632223012221 0  2.833434714842781 1.102015011431888 0  1.485476187845101 1.118115752354218 0  0.7869575052851041 0.2127716822913992 0  1.091585464669657 0.4673676525872368 0  0.9308375558444295 1.286291202675726 0  2.609275627299536 0.5207885309723005 0  2.859418780372727 0.4404724026784034 0  0.1368795735450182 0.2913992261536034 0  0.5088670694303536 0.6431238265444117 0  0.9924988599062848 0.7887715626383616 0  0.8674753477047706 0.6821390867986818 0  0.6993572585883594 0.9038049302516018 0  1.53924450853783 0.6818717864694561 0  1.27954362181495 0.818196911265721 0  2.885754890315292 0.65625 0  0.1199579452929171 0.84375 0  0.3101130847613819 0.7251157056441525 0  2.683488575489726 1.10528265125029 0  2.637912450120847 1.350340704724588 0  0.65625 1.387568746661148 0  2.204969505432462 0.7645924845263576 0  2.34230217156612 0.6870332922078795 0  2.458336421316689 0.930056573232228 0  1.547170662421109 0.4687109428674099 0  0.55426355401875 0.2785752421136156 0  1.927690911684502 0.7425770788416013 0  2.650983472818039 0.6639703826486528 0  0.2807744135836687 0.2731407085328489 0  2.697063502273202 0.4130460425434029 0  1.768721210125562 0.4985606178023466 0  1.59375 1.394491048145999 0  1.03125 1.39617417476255 0  2.649124789533757 0.9376608889715211 0  2.899345577629528 0.84375 0  2.448792339301353 1.151333513094988 0  2.455516477512143 0.7671738041202795 0  0.1479512725554237 1.367277900867101 0  1.733007556765436 0.6856365299097277 0  2.865 0 0  0.407900401917371 0.1920322062602331 0  1.482893533441057 0.9020086108979886 0  2.902194538181383 1.21875 0  2.860324471164851 1.360324471164851 0  0.9128790560808855 0.5311054613533476 0  0.7396036279203969 1.183264973390871 0  1.379392725427689 0.4456149894503371 0  0.8305263666170877 0.339868595109382 0  2.352639297837627 1.399880277695907 0  2.15625 1.5 0  2.32277762299786 1.203473773731512 0  1.818471673600783 0.235727380341035 0  1.269129800285538 0.3222823294390822 0  2.329228807632851 0.5297324129610972 0  0.430777275012463 0.469645907614299 0  1.390502090335328 0.1630587681988043 0  1.149408636841162 1.157447166816889 0  1.687853147042319 0.2519031106491252 0  0.3941048876243997 0.8956837842542459 0  1.877835046604575 0.410724628626283 0  1.348230251479045 0.6691802479050837 0  2.336954765206726 0.2613063289913201 0  2.514033953321691 1.393470229958569 0  0 0.46875 0  0.1287800079303892 0.5340043503292357 0  2.441328451749267 0.3721441168812449 0  0.9333932382689634 0.2670516659043625 0  1.13959172768211 0.5827503401695603 0  0.8703665929291606 1.395134656069543 0  1.240468926246127 0.9364063612525604 0  1.433475419570003 1.229904687600933 0  1.020534477629395 0.9101139083191684 0  1.108777781305164 0.7462713331880694 0  0.6468125623079457 0.6038935958199032 0  1.665312060212151 0.428962863572448 0  0.2512528931669099 0.5500044694745148 0  2.66971919386773 0.2450375495263612 0  2.901855502368762 0.2640467328343441 0  2.063534245742155 0.9373123558679215 0  2.031795413587333 0.1972457754676831 0  1.836924180675512 1.065887991891963 0  1.001601941364679 1.16852535211421 0  0.8051266927803291 0.9581030042697194 0  0.7620228346493961 0.7461373576581022 0  3 1.03125 0  2.084817260746984 1.176705869274554 0  2.085981885570153 0.5347538843754811 0  1.496744890324478 0.239335226969819 0  1.894594308711337 0.8570406362709689 0  1.78125 1.5 0  2.109375 1.394928085212741 0  2.71875 1.5 0  0.4943575340553394 1.217544978302146 0  0.5937185858435849 1.055241883498284 0  2.227680725187669 0.3075299344665331 0  0.5158109084499103 0.3891628929402524 0  1.96875 1.5 0  0.6036564600183
[...]
<PointData  Tensors="f_1252"> 
<DataArray  type="Float64"  Name="f_1252"  NumberOfComponents="9" format="ascii">-5.2788924913743376e+00 -4.1950514846830869e+00 0.0000000000000000e+00 -4.1950514846830869e+00 -1.2981101520838669e+01 0.0000000000000000e+00 0.0000000000000000e+00 0.0000000000000000e+00 0.0000000000000000e+00  3.4752804050532554e+01 3.1363576734584409e+00 0.0000000000000000e+00 3.1363576734584409e+00 2.6461875716158950e+01 0.0000000000000000e+00 0.0000000000000000e+00 0.0000000000000000e+00 0.0000000000000000e+00  2.2845957548938820e+01 3.5354711880870555e+00 0.0000000000000000e+00 3.5354711880870555e+00 3.0061117633163889e+01 0.0000000000000000e+00 0.0000000000000000e+00 0.0000000000000000e+00 0.0000000000000000e+00  5.2155785821503542e+01 1.8921688893079523e+01 0.0000000000000000e+00 1.8921688893079523e+01 9.5115352903646464e+00 0.0000000000000000e+00 0.0000000000000000e+00 0.0000000000000000e+00 0.0000000000000000e+00  8.4980481866484766e+01 1.6018470511244445e+01 0.0000000000000000e+00 1.6018470511244445e+01 -4.3599696293870416e+01 0.0000000000000000e+00 0.0000000000000000e+00 0.0000000000000000e+00 0.0000000000000000e+00  1.2599975740200858e+02 -5.3212598460314640e+00 0.0000000000000000e+00 -5.3212598460314640e+00 -7.5708428146474816e+01 0.0000000000000000e+00 0.0000000000000000e+00 0.0000000000000000e+00 0.0000000000000000e+00  8.1972143540510274e+01 -1.8195040891033489e+01 0.0000000000000000e+00 -1.8195040891033489e+01 -2.6569790788883541e+01 0.0000000000000000e+00 0.0000000000000000e+00 0.0000000000000000e+00 0.0000000000000000e+00  3.9877889243683583e+01 5.9013200582169944e+01 0.0000000000000000e+00 5.9013200582169944e+01 1.5140443905694591e+01 0.0000000000000000e+00 0.0000000000000000e+00 0.0000000000000000e+00 0.0000000000000000e+00  4.9081347984476345e+01 8.6284008905438611e+01 0.0000000000000000e+00 8.6284008905438611e+01 -7.6550115927128193e+00 0.0000000000000000e+00 0.0000000000000000e+00 0.0000000000000000e+00 0.0000000000000000e+00  8.0101086865430542e+00 1.5158402351639952e+01 0.0000000000000000e+00 1.5158402351639952e+01 6.4942412363396770e+01 0.0000000000000000e+00 0.0000000000000000e+00 0.0000000000000000e+00 0.0000000000000000e+00  -1.1556340269115029e+02 6.7274346493738918e+01 0.0000000000000000e+00 6.7274346493738918e+01 1.5027441406444652e+02 0.0000000000000000e+00 0.0000000000000000e+00 0.0000000000000000e+00 0.0000000000000000e+00  -1.0126671475205914e+02 1.2153594656043776e+02 0.0000000000000000e+00 1.2153594656043776e+02 1.4067329800171132e+02 0.0000000000000000e+00 0.0000000000000000e+00 0.0000000000000000e+00 0.0000000000000000e+00  2.8478043236411320e+01 9.9107584620292251e+00 0.0000000000000000e+00 9.9107584620292251e+00 4.4363028829026298e+01 0.0000000000000000e+00 0.0000000000000000e+00 0.0000000000000000e+00 0.0000000000000000e+00  2.6028571743816119e+01 -1.3324939693981277e+00 0.0000000000000000e+00 -1.3324939693981270e+00 1.6392609368932803e+01 0.0000000000000000e+00 0.0000000000000000e+00 0.0000000000000000e+00 0.0000000000000000e+00  4.7763946582076393e+01 1.7592564916860439e+01 0.0000000000000000e+00 1.7592564916860439e+01 6.3567759678869074e+00 0.0000000000000000e+00 0.0000000000000000e+00 0.0000000000000000e+00 0.0000000000000000e+00  3.4207930901219669e+01 2.3592817270378877e+01 0.0000000000000000e+00 2.3592817270378877e+01 1.3273936219499227e+01 0.0000000000000000e+00 0.0000000000000000e+00 0.0000000000000000e+00 0.0000000000000000e+00  -6.1958001705277439e+01 3.3336626437058683e+01 0.0000000000000000e+00 3.3336626437058683e+01 1.2183337345865210e+02 0.0000000000000000e+00 0.0000000000000000e+00 0.0000000000000000e+00 0.0000000000000000e+00  -4.9664019114410145e+01 7.8043761668450529e+01 0.0000000000000000e+00 7.8043761668450529e+01 1.0296580557403848e+02 0.0000000000000000e+00 0.0000000000000000e+00 0.0000000000000000e+00 0.0000000000000000e+00  2.8519272714031940e+00 -6.3003781784365920e+00 0.0000000000000000e+00 -6.3003781784365920e+00 7.1364871026193910e+01 0.0000000000000000e+00 0.0000000000000000e+00 0.0000000000000000e+00 0.0000000000000000e+00  -7.2636128969029457e+01 -7.2183515997590092e+01 0.0000000000000000e+00 -7.2183515997590092e+01 1.3159008355435628e+02 0.0000000000000000e+00 0.0000000000000000e+00 0.0000000000000000e+00 0.0000000000000000e+00  -1.5703864689146336e+00 -2.4117305728923068e+01 0.0000000000000000e+00 -2.4117305728923068e+01 4.6977742377219300e+01 0.0000000000000000e+00 0.0000000000000000e+00 0.0000000000000000e+00 0.0000000000000000e+00  4.6243563171800865e+01 -2.6545511239569624e+01 0.0000000000000000e+00 -2.6545511239569624e+01 -6.2823647713195740e-01 0.0000000000000000e+00 0.0000000000000000e+00 0.0000000000000000e+00 0.0000000000000000e+00  2.8640244729672663e+01 4.8863387754799348e+00 0.0000000000000000e+00 4.8863387754799348e+00 1.8801030811751303e+01 0.0000000000000000e+00 0.0000000000000000e+00 0.0000000000000000e+00 0.0000000000000000e+00  -4.9337660056370973e+00 -2.3895694486348617e+01 0.0000000000000000e+00 -2.3895694486348617e+01 7.6821965844204442e+01 0.0000000000000000e+00 0.0000000000000000e+00 0.0000000000000000e+00 0.0000000000000000e+00  -5.9537596655348864e+01 -1.0510116871447687e+02 0.0000000000000000e+00 -1.0510116871447687e+02 1.0580836074786940e+02 0.0000000000000000e+00 0.0000000000000000e+00 0.0000000000000000e+00 0.0000000000000000e+00  -1.3708795002805726e+02 -5.7014280650189647e+01 0.0000000000000000e+00 -5.7014280650189647e+01 1.6204235936933949e+02 0.0000000000000000e+00 0.0000000000000000e+00 0.0000000000000000e+00 0.0000000000000000e+00  -6.0895650520926331e+01 -2.8480960939692807e+01 0.0000000000000000e+00 -2.8480960939692807e+01 1.1159612561176677e+02 0.0000000000000000e+00 0.0000000000000000e+00 0.0000000000000000e+00 0.0000000000000000e+00  2.5194211821138744e+01 -5.6832430162659271e+01 0.0000000000000000e+00 -5.6832430162659271e+01 1.9526695859513733e+01 0.0000000000000000e+00 0.0000000000000000e+00 0.0000000000000000e+00 0.0000000000000000e+00  2.2871765267740454e+01 -7.0592563070918473e+01 0.0000000000000000e+00 -7.0592563070918473e+01 7.4491550534716016e+00 0.0000000000000000e+00 0.0000000000000000e+00 0.0000000000000000e+00 0.0000000000000000e+00  6.1342265538228297e+01 1.7435569020947849e+01 0.0000000000000000e+00 1.7435569020947849e+01 -1.6855899284934093e+01 0.0000000000000000e+00 0.0000000000000000e+00 0.0000000000000000e+00 0.0000000000000000e+00  1.1931453040162903e+02 4.1670013613005089e+01 0.0000000000000000e+00 4.1670013613005089e+01 -8.3647925293909239e+01 0.0000000000000000e+00 0.0000000000000000e+00 0.0000000000000000e+00 0.0000000000000000e+00  8.8732641519768109e+01 -3.2627691580606601e+00 0.0000000000000000e+00 -3.2627691580606601e+00 -4.1476712128924092e+01 0.0000000000000000e+00 0.0000000000000000e+00 0.0000000000000000e+00 0.0000000000000000e+00  3.4150992823427494e+01 -1.1139619094323116e+01 0.0000000000000000e+00 -1.1139619094323116e+01 1.2839020280418593e+01 0.0000000000000000e+00 0.0000000000000000e+00 0.0000000000000000e+00 0.0000000000000000e+00  2.2002892080295339e+01 -1.0861256142910916e+00 0.0000000000000000e+00 -1.0861256142910916e+00 1.5871897598221961e+01 0.0000000000000000e+00 0.0000000000000000e+00 0.0000000000000000e+00 0.0000000000000000e+00  2.0663273274388025e+01 -7.4825606466732353e-01 0.0000000000000000e+00 -7.4825606466732353e-01 2.6670650726260916e+01 0.0000000000000000e+00 0.0000000000000000e+00 0.0000000000000000e+00 0.0000000000000000e+00  -5.9159307412666521e+01 -4.2642151564831408e+01 0.0000000000000000e+00 -4.2642151564831408e+01 9.3783077233694087e+01 0.0000000000000000e+00 0.0000000000000000e+00 0.0000000000000000e+00 0.0000000000000000e+00  -7.9574750852018369e+01 -8.6244653652693032e+01 0.0000000000000000e+00 -8.6244653652693032e+01 1.0806915707457357e+02 0.0000000000000000e+00 0.0000000000000000e+00 0.0000000000000000e+00 0.0000000000000000e+00  -7.5052365611828392e+01 -4.0015616888514380e+01 0.0000000000000000e+00 -4.0015616888514380e+01 1.1105738313893664e+02 0.0000000000000000e+00 0.0000000000000000e+00 0.0000000000000000e+00 0.0000000000000000e+00  1.7930420184022569e+01 -3.9018652434344759e+01 0.0000000000000000e+00 -3.9018652434344759e+01 2.4367768193702158e+01 0.0000000000000000e+00 0.0000000000000000e+00 0.0000000000000000e+00 0.0000000000000000e+00  1.9047279782631538e+01 -9.1700495535217144e+01 0.0000000000000000e+00 -9.1700495535217144e+01 -7.6202513256799049e+00 0.0000000000000000e+00 0.0000000000000000e+00 0.0000000000000000e+00 0.0000000000000000e+00  6.6012107953264945e+01 6.5337525586093104e-01 0.0000000000000000e+00 6.5337525586093104e-01 -2.4707253801817672e+01 0.0000000000000000e+00 0.0000000000000000e+00 0.0000000000000000e+00 0.0000000000000000e+00  1.3965603383132637e+02 5.5611386565999297e+01 0.0000000000000000e+00 5.5611386565999297e+01 -9.6422604802439409e+01 0.0000000000000000e+00 0.0000000000000000e+00 0.0000000000000000e+00 0.0000000000000000e+00  1.2389251493062181e+02 -6.6405607619130054e+00 0.0000000000000000e+00 -6.6405607619130054e+00 -7.8735179977216845e+01 0.0000000000000000e+00 0.0000000000000000e+00 0.0000000000000000e+00 0.0000000000000000e+00  4.2569410334265505e+01 -2.8450670997069377e+01 0.0000000000000000e+00 -2.8450670997069373e+01 -5.2579557706391853e+00 0.0000000000000000e+00 0.0000000000000000e+00 0.0000000000000000e+00 0.0000000000000000e+00  2.6832474213628291e+01 -4.3032469750086442e+00 0.0000000000000000e+00 -4.3032469750086433e+00 7.4573512405493974e+00 0.0000000000000000e+00 0.0000000000000000e+00 0.0000000000000000e+00 0.0000000000000000e+00  1.3572944793239628e+01 -3.7139295308895646e+00 0.0000000000000000e+00 -3.7139295308895646e+00 4.2818006246005268e+01 0.0000000000000000e+00 0.0000000000000000e+00 0.0000000000000000e+00 0.0000000000000000e+00  -1.5905937622754337e+01 -1.9765197200572690e+01 0.0000000000000000e+00 -1.9765197200572690e+01 5.4205891785989621e+01 0.0000000000000000e+00 0.0000000000000000e+00 0.0000000000000000e+00 0.0000000000000000e+00  -2.6490645147384324e+01 -2.1803358826610850e+01 0.0000000000000000e+00 -2.1803358826610850e+01 6.6874226089592966e+01 0.0000000000000000e+00 0.0000000000000000e+00 0.0000000000000000e+00 0.0000000000000000e+00  3.5554104871250210e+01 -7.4912962262300724e+01 0.0000000000000000e+00 -7.4912962262300724e+01 1.0869713768724701e+01 0.0000000000000000e+00 0.0000000000000000e+00 0.0000000000000000e+00 0.0000000000000000e+00  1.4951064575800743e+01 -1.0748349621962176e+02 0.0000000000000000e+00 -1.0748349621962176e+02 -7.9241524355201136e+00 0.0000000000000000e+00 0.0000000000000000e+00 0.0000000000000000e+00 0.0000000000000000e+00  8.9492519187312013e+01 1.1463873847072167e+01 0.0000000000000000e+00 1.1463873847072167e+01 -5.3473933926144994e+01 0.0000000000000000e+00 0.0000000000000000e+00 0.0000000000000000e+00 0.0000000000000000e+00  1.4148885888286475e+02 2.1237670803366040e+01 0.0000000000000000e+00 2.1237670803366040e+01 -1.0696595412820550e+02 0.0000000000000000e+00 0.0000000000000000e+00 0.0000000000000000e+00 0.0000000000000000e+00  8.8992002503252237e+01 -4.9693859270510096e+01 0.0000000000000000e+00 -4.9693859270510096e+01 -5.2730800049089083e+01 0.0000000000000000e+00 0.0000000000000000e+00 0.0000000000000000e+00 0.0000000000000000e+00  9.2892414629203675e+00 -9.9283889519476975e+00 0.0000000000000000e+00 -9.9283889519476975e+00 1.7670324365494896e+01 0.0000000000000000e+00 0.0000000000000000e+00 0.0000000000000000e+00 0.0000000000000000e+00  2.6812997494116690e+01 -5.1977895743898586e+00 0.0000000000000000e+00 -5.1977895743898586e+00 7.6540023126830468e+00 0.0000000000000000e+00 0.0000000000000000e+00 0.0000000000000000e+00 0.0000000000000000e+00  3.8989717242111894e+01 2.3795082105466630e+01 0.0000000000000000e+00 2.3795082105466630e+01 -4.6850153766797078e+00 0.0000000000000000e+00 0.0000000000000000e+00 0.0000000000000000e+00 0.0000000000000000e+00  7.4278398893389436e+01 2.4414549565419900e+01 0.0000000000000000e+00 2.4414549565419900e+01 -4.6355538957614989e+01 0.0000000000000000e+00 0.0000000000000000e+00 0.0000000000000000e+00 0.0000000000000000e+00  1.2223959740585056e+02 -2.8650726998342606e+01 0.0000000000000000e+00 -2.8650726998342606e+01 -1.0563112714042506e+02 0.0000000000000000e+00 0.0000000000000000e+00 0.0000000000000000e+00 0.0000000000000000e+00  1.1387043232159543e+02 -4.5862909378454923e+01 0.0000000000000000e+00 -4.5862909378454923e+01 -8.0001203836929776e+01 0.0000000000000000e+00 0.0000000000000000e+00 0.0000000000000000e+00 0.0000000000000000e+00  2.4683097731860276e+01 4.6811628618012165e+01 0.0000000000000000e+00 4.6811628618012165e+01 6.0841081172862266e-01 0.0000000000000000e+00 0.0000000000000000e+00 0.0000000000000000e+00 0.0000000000000000e+00  1.2221427147008752e+01 4.1508539987063884e+01 0.0000000000000000e+00 4.1508539987063884e+01 1.9676721210260016e+01 0.0000000000000000e+00 0.0000000000000000e+00 0.0000000000000000e+00 0.0000000000000000e+00  -4.7931492451220478e+01 -4.8042470207612844e+00 0.0000000000000000e+00 -4.8042470207612844e+00 8.1594419029763884e+01 0.0000000000000000e+00 0.0000000000000000e+00 0.0000000000000000e+00 0.0000000000000000e+00  -1.2323990570413375e+02 4.5974188761805472e+01 0.0000000000000000e+00 4.5974188761805472e+01 1.4469240641513298e+02 0.0000000000000000e+00 0.0000000000000000e+00 0.0000000000000000e+00 0.0000000000000000e+00  -3.3369450583025497e+01 3.1679342214864331e+01 0.0000000000000000e+00 3.1679342214864331e+01 6.2038084963924895e+01 0.0000000000000000e+00 0.0000000000000000e+00 0.0000000000000000e+00 0.0000000000000000e+00  1.0205060121013387e+01 -2.0373531230264001e+00 0.0000000000000000e+00 -2.0373531230264001e+00 2.5700423688024742e+01 0.0000000000000000e+00 0.0000000000000000e+00 0.0000000000000000e+00 0.0000000000000000e+00  1.4145871776020311e+01 1.0051216508166441e+00 0.0000000000000000e+00 1.0051216508166441e+00 1.5480361133219567e+01 0.0000000000000000e+00 0.0000000000000000e+00 0.0000000000000000e+00 0.0000000000000000e+00  2.3972386031982978e+01 9.7744321052582848e+00 0.0000000000000000e+00 9.7744321052582848e+00 4.9730331830329483e-01 0.0000000000000000e+00 0.0000000000000000e+00 0.0000000000000000e+00 0.0000000000000000e+00  9.1059430781712848e+01 9.9345732167740479e+00 0.0000000000000000e+00 9.9345732167740479e+00 -6.0890420641991831e+01 0.0000000000000000e+00 0.0000000000000000e+00 0.0000000000000000e+00 0.0000000000000000e+00  1.3221276043623658e+02 -6.3093329670683246e+01 0.0000000000000000e+00 -6.3093329670683246e+01 -1.3326780279144938e+02 0.0000000000000000e+00 0.0000000000000000e+00 0.0000000000000000e+00 0.0000000000000000e+00  5.5510472418206632e+01 -4.2681352743557206e+01 0.0000000000000000e+00 -4.2681352743557206e+01 -4.6094011434128667e+01 0.0000000000000000e+00 0.0000000000000000e+00 0.0000000000000000e+00 0.0000000000000000e+00  1.8285440842863354e+00 -1.7982960300950822e+01 0.0000000000000000e+00 -1.7982960300950822e+01 1.3604067333691868e+01 0.0000000000000000e+00 0.0000000000000000e+00 0.0000000000000000e+00 0.0000000000000000e+00  -6.9314027346016488e+01 -3.9396151435005223e+01 0.0000000000000000e+00 -3.9396151435005223e+01 1.1520006144442635e+02 0.0000000000000000e+00 0.0000000000000000e+00 0.0000000000000000e+00 0.0000000000000000e+00  -2.0953076067731115e+02 5.0997573314903313e+01 0.0000000000000000e+00 5.0997573314903313e+01 2.1763848522310766e+02 0.0000000000000000e+00 0.0000000000000000e+00 0.0000000000000000e+00 0.0000000000000000e+00  -1.2845455964009886e+02 1.6780629047700202e+02 0.0000000000000000e+00 1.6780629047700202e+02 1.4545661133184362e+02 0.0000000000000000e+00 0.0000000000000000e+00 0.0000000000000000e+00 0.0000000000000000e+00  8.3318492348973483e-01 -8.6366892080648636e+00 0.0000000000000000e+00 -8.6366892080648636e+00 2.4455378684969457e+01 0.0000000000000000e+00 0.0000000000000000e+00 0.0000000000000000e+00 0.0000000000000000e+00  -1.3924943441198766e+02 1.0606475788369683e+02 0.0000000000000000e+00 1.0606475788369683e+02 2.0027990527196331e+00 0.0000000000000000e+00 0.0000000000000000e+00 0.0000000000000000e+00 0.0000000000000000e+00  3.7276238194880955e+02 2.2546280857521577e+02 0.0000000000000000e+00 2.2546280857521577e+02 6.2514493189843158e+01 0.0000000000000000e+00 0.0000000000000000e+00 0.0000000000000000e+00 0.0000000000000000e+00  9.2338231649790323e+00 1.1858519236398114e+02 0.0000000000000000e+00 1.1858519236398114e+02 7.5171716323971163e+00 0.0000000000000000e+00 0.0000000000000000e+00 0.0000000000000000e+00 0.0000000000000000e+00  -5.2888059078357754e+00 -2.5079312234913780e+02 0.0000000000000000e+00 -2.5079312234913780e+02 2.9851177101070192e+00 0.0000000000000000e+00 0.0000000000000000e+00 0.0000000000000000e+00 0.0000000000000000e+00  1.1009962760368976e+01 1.6065121866713980e+01 0.0000000000000000e+00 1.6065121866713980e+01 -2.9739507890389049e+01 0.0000000000000000e+00 0.0000000000000000e+00 0.0000000000000000e+00 0.0000000000000000e+00  1.6756858243177366e+01 1.2328217955742851e+02 0.0000000000000000e+00 1.2328217955742851e+02 2.0088632430318309e+01 0.0000000000000000e+00 0.0000000000000000e+00 0.0000000000000000e+00 0.0000000000000000e+00  3.1957259181850716e+01 1.1519592016152717e+02 0.0000000000000000e+00 1.1519592016152717e+02 9.2591733035672252e+00 0.0000000000000000e+00 0.0000000000000000e+00 0.0000000000000000e+00 0.0000000000000000e+00  1.4945434641655291e+01 6.6861644485961634e+01 0.0000000000000000e+00 6.6861644485961634e+01 3.5040702859821039e+01 0.0000000000000000e+00 0.0000000000000000e+00 0.0000000000000000e+00 0.0000000000000000e+00  -2.5039312876857093e+01 1.0921772718966237e+01 0.0000000000000000e+00 1.0921772718966237e+01 1.8303494978851740e+00 0.0000000000000000e+00 0.0000000000000000e+00 0.0000000000000000e+00 0.0000000000000000e+00  -7.9714432101672292e+00 -1.1466303523556691e+01 0.0000000000000000e+00 -1.1466303523556691e+01 -1.4230463019323469e+01 0.0000000000000000e+00 0.0000000000000000e+00 0.0000000000000000e+00 0.0000000000000000e+00  2.4457762424865503e+00 3.1423076798989069e+01 0.0000000000000000e+00 3.1423076798989076e+01 3.0711685044333312e+00 0.0000000000000000e+00 0.0000000000000000e+00 0.0000000000000000e+00 0.0000000000000000e+00  1.5535119353141718e+00 2.7258569278935308e+01 0.0000000000000000e+00 2.7258569278935308e+01 1.0250204347338077e+00 0.0000000000000000e+00 0.0000000000000000e+00 0.0000000000000000e+00 0.0000000000000000e+00  2.1677852168852976e+00 2.6248669088918650e+01 0.0000000000000000e+00 2.6248669088918650e+01 2.9116235961299890e+00 0.0000000000000000e+00 0.0000000000000000e+00 0.0000000000000000e+00 0.0000000000000000e+00  -2.1680234535636043e+00 -4.6631821567526339e+00 0.0000000000000000e+00 -4.6631821567526339e+00 -5.0220155743229506e+00 0.0000000000000000e+00 0.0000000000000000e+00 0.0000000000000000e+00 0.0000000000000000e+00  1.3837795707924267e+00 -3.0451792349536188e+01 0.0000000000000000e+00 -3.0451792349536188e+01 6.4815748800807871e+00 0.0000000000000000e+00 0.0000000000000000e+00 0.0000000000000000e+00 0.0000000000000000e+00  -1.9739852824447806e+00 -2.5481114661816061e+01 0.0000000000000000e+00 -2.5481114661816061e+01 -2.5855823941615297e+00 0.0000000000000000e+00 0.0000000000000000e+00 0.0000000000000000e+00 0.0000000000000000e+00  1.1741604392961538e+01 1.1865826154419555e+01 0.0000000000000000e+00 1.1865826154419555e+01 1.1750652500756630e+01 0.0000000000000000e+00 0.0000000000000000e+00 0.0000000000000000e+00 0.0000000000000000e+00  7.7535695948498589e+00 -1.1937937365016056e+00 0.0000000000000000e+00 -1.1937937365016056e+00 8.1894186968076408e+00 0.0000000000000000e+00 0.0000000000000000e+00 0.0000000000000000e+00 0.0000000000000000e+00  -3.1066224906953128e+01 -1.0752199740588811e+02 0.0000000000000000e+00 -1.0752199740588811e+02 -1.3061820889493571e+01 0.0000000000000000e+00 0.0000000000000000e+00 0.0000000000000000e+00 0.0000000000000000e+00  1.2414923661801803e+01 -3.2559034463133798e+01 0.0000000000000000e+00 -3.2559034463133798e+01 1.2088531015031226e+01 0.0000000000000000e+00 0.0000000000000000e+00 0.000000000000