<?xml version="1.0"?>
<VTKFile type="UnstructuredGrid"  version="0.1"  >
<UnstructuredGrid>
<Piece  NumberOfPoints="4978" NumberOfCells="9630">
<Points>
<DataArray  type="Float64"  NumberOfComponents="3"  format="ascii">0 1.5 0  0 0 0  0.06190941752361886 0 0  0.06190941752361886 0.02304324263930277 0  0.07687367483109155 0.06663263502519032 0  0.1051805799723963 0.1030013474942385 0  0.1437626405485843 0.128208265731708 0  0.1884388916338735 0.1395218290209338 0  0.2343679681997119 0.1357160372315063 0  0.2765727421371398 0.117203306956754 0  0.3104796713154951 0.0859897797765535 0  0.3324144138380889 0.04545792568865569 0  0.34 0 0  0.4722134970410927 0 0  0.4722134970410927 0.02388743731615415 0  0.4894717723551502 0.0684361811740563 0  0.5216574972706967 0.1037422395464312 0  0.5644238112906292 0.1250373336124665 0  0.6119948867302293 0.1294454429183545 0  0.6579459862509499 0.1163712278761581 0  0.6960711592386857 0.08758043367405244 0  0.7212213898225662 0.04696141660432988 0  0.73 0 0  0.85 0 0  0.857341522555727 0.04635254915624212 0  0.8786474508437579 0.08816778784387098 0  0.9118322121561291 0.1213525491562421 0  0.9536474508437579 0.142658477444273 0  1 0.15 0  1.046352549156242 0.142658477444273 0  1.088167787843871 0.1213525491562421 0  1.121352549156242 0.08816778784387097 0  1.142658477444273 0.04635254915624211 0  1.15 0 0  1.461909417523619 0 0  1.461909417523619 0.02304324263930277 0  1.476873674831092 0.06663263502519032 0  1.505180579972396 0.1030013474942385 0  1.543762640548584 0.128208265731708 0  1.588438891633874 0.1395218290209338 0  1.634367968199712 0.1357160372315063 0  1.67657274213714 0.117203306956754 0  1.710479671315495 0.0859897797765535 0  1.732414413838089 0.04545792568865569 0  1.74 0 0  1.78 0 0  1.789134456098646 0.04592201188381079 0  1.815147186257614 0.08485281374238571 0  1.854077988116189 0.1108655439013544 0  1.9 0.12 0  1.945922011883811 0.1108655439013544 0  1.984852813742386 0.08485281374238569 0  2.010865543901355 0.04592201188381077 0  2.02 0 0  2.161909417523619 0 0  2.161909417523619 0.02304324263930277 0  2.176873674831092 0.06663263502519032 0  2.205180579972396 0.1030013474942385 0  2.243762640548584 0.128208265731708 0  2.288438891633873 0.1395218290209338 0  2.334367968199712 0.1357160372315063 0  2.37657274213714 0.117203306956754 0  2.410479671315495 0.0859897797765535 0  2.432414413838089 0.04545792568865569 0  2.44 0 0  2.472213497041093 0 0  2.472213497041093 0.02388743731615415 0  2.48947177235515 0.0684361811740563 0  2.521657497270697 0.1037422395464312 0  2.564423811290629 0.1250373336124665 0  2.611994886730229 0.1294454429183545 0  2.65794598625095 0.1163712278761581 0  2.696071159238686 0.08758043367405244 0  2.721221389822567 0.04696141660432988 0  2.73 0 0  3 0 0  3 1.5 0  0 0.75 0  3 0.75 0  1.5 1.5 0  0 0.375 0  0 0.1875 0  0 0.09375 0  0.75 1.5 0  2.25 1.5 0  1.137279452465634 0.8667483509386543 0  2.055384907633385 0.8149748422668953 0  0.5545701656450307 0.9454298343549693 0  2.545804583542266 1.045804583542266 0  2.462951104370831 0.5854482317237805 0  1.6063536999151 1.018574336065804 0  0.7683179692414909 0.5511078775270282 0  1.647896012796697 0.5780189144999826 0  1.875 1.5 0  0.3683226130580748 0.5893782185394094 0  0.375 1.5 0  0 1.125 0  3 0.375 0  1.125 1.5 0  3 1.125 0  2.625 1.5 0  1.247216233241016 0.4851891764902285 0  0.8779404074027722 1.143194262378568 0  1.992337703792022 0.4642129848858538 0  2.200035536160075 1.144037289792772 0  1.3125 1.206118267007311 0  1.882280687299076 1.18026905614258 0  0.8375010042452264 0.8437030129736524 0  0.2703628106324028 0.8673582108832857 0  0.336944444033578 1.181320038574892 0  1.424720841531434 0.7792108746582741 0  2.763716218670896 0.5625 0  0.6112325230261646 1.216037756380734 0  2.429292395855053 1.293345775631689 0  2.798691155259055 0.9375 0  2.340750225085827 0.8450755885956063 0  2.74506315455788 1.24506315455788 0  0.4115012634770826 0.3359864655288552 0  1.6875 1.5 0  1.553212834656815 1.259295117559057 0  1.783849920010049 0.8130750647527071 0  2.590242300399914 0.800172794523538 0  2.206538789959823 0.6067588023913982 0  1.022769083327432 0.627137676743421 0  2.0625 1.5 0  2.566013274303806 0.3667751817948443 0  2.317230353528816 0.3853650267397287 0  0.9546600707351991 0.3912757388497677 0  1.76490060939521 0.3540000691256479 0  1.398169292756645 0.3089248951275104 0  0.1875 1.5 0  0.6961815191548208 0.3380429757712475 0  0.6390751493076395 0.7361434669345621 0  1.385952842918209 0.9972233609662619 0  1.082019261833385 1.265823315390121 0  2.784258672215756 0.3048233224522298 0  0 0.5625 0  0.2130557952202133 0.4325455696870932 0  2.110276358430479 0.2903936515686117 0  0 1.3125 0  0.5618175915722093 0.5022778936897083 0  1.438605690073396 0.5702366817214194 0  1.851778102902867 0.6169409446553686 0  0.9375 1.5 0  1.918499765346388 0.9737703250858507 0  1.066617221574711 1.060327143126178 0  0.17830064634795 0.65625 0  1.139464543633635 0.3182162642668528 0  1.214887260891528 0.6824917486258804 0  0.4470960700565646 0.7803305254813445 0  2.056073894593081 1.292965518236122 0  0.7800417460951754 1.309431349558015 0  0.7102942521579887 1.054059105222724 0  2.772203778896419 0.7508393899039921 0  3 0.9375 0  2.4375 1.5 0  0.5625 1.5 0  3 0.5625 0  1.3125 1.5 0  0 0.9375 0  3 1.3125 0  2.8125 1.5 0  3 0.1875 0  1.74009613212014 1.312845810865967 0  0.1858279553328271 1.04932632064409 0  1.582414108002925 0.3243096672004901 0  0.4576542986122824 1.328517530191622 0  1.30595470876181 0 0  0.1616828829631953 1.229471150973137 0  1.600689448835705 0.8342777580615786 0  2.184954406689295 0.9543424310663166 0  2.356848459734244 1.033731425282726 0  2.249618867339344 1.318565528322325 0  2.031012140730151 0.6383085966483963 0  1.264473591492607 0.1926369230867345 0  1.93294708275428 0.2969945700235964 0  1.406271966518558 1.353045118606616 0  0.2855042944080262 1.351202341158466 0  2.163692386827529 0.4469681835123645 0  2.058709899218631 1.05982604745508 0  1.21875 1.361760465218127 0  1.232585115983139 1.060656719142284 0  1.682328919476849 1.161572426192166 0  0.4864612871934715 1.100927295036068 0  2.842393003195402 0.1547034389615206 0  1.901710724058898 1.340659870484523 0  2.578488906869203 1.212378831230944 0  0.346730023619794 1.013455011579226 0  1.758789788261688 0.970834021568154 0  0.9209577900333827 0.984909924281538 0  2.461973640748163 0.2490632223012221 0  2.833434714842781 1.102015011431888 0  1.485476187845101 1.118115752354218 0  0.7869575052851041 0.2127716822913992 0  1.091585464669657 0.4673676525872368 0  0.9308375558444295 1.286291202675726 0  2.609275627299536 0.5207885309723005 0  2.859418780372727 0.4404724026784034 0  0.1368795735450182 0.2913992261536034 0  0.5088670694303536 0.6431238265444117 0  0.9924988599062848 0.7887715626383616 0  0.8674753477047706 0.6821390867986818 0  0.6993572585883594 0.9038049302516018 0  1.53924450853783 0.6818717864694561 0  1.27954362181495 0.818196911265721 0  2.885754890315292 0.65625 0  0.1199579452929171 0.84375 0  0.3101130847613819 0.7251157056441525 0  2.683488575489726 1.10528265125029 0  2.637912450120847 1.350340704724588 0  0.65625 1.387568746661148 0  2.204969505432462 0.7645924845263576 0  2.34230217156612 0.6870332922078795 0  2.458336421316689 0.930056573232228 0  1.547170662421109 0.4687109428674099 0  0.55426355401875 0.2785752421136156 0  1.927690911684502 0.7425770788416013 0  2.650983472818039 0.6639703826486528 0  0.2807744135836687 0.2731407085328489 0  2.697063502273202 0.4130460425434029 0  1.768721210125562 0.4985606178023466 0  1.59375 1.394491048145999 0  1.03125 1.39617417476255 0  2.649124789533757 0.9376608889715211 0  2.899345577629528 0.84375 0  2.448792339301353 1.151333513094988 0  2.455516477512143 0.7671738041202795 0  0.1479512725554237 1.367277900867101 0  1.733007556765436 0.6856365299097277 0  2.865 0 0  0.407900401917371 0.1920322062602331 0  1.482893533441057 0.9020086108979886 0  2.902194538181383 1.21875 0  2.860324471164851 1.360324471164851 0  0.9128790560808855 0.5311054613533476 0  0.7396036279203969 1.183264973390871 0  1.379392725427689 0.4456149894503371 0  0.8305263666170877 0.339868595109382 0  2.352639297837627 1.399880277695907 0  2.15625 1.5 0  2.32277762299786 1.203473773731512 0  1.818471673600783 0.235727380341035 0  1.269129800285538 0.3222823294390822 0  2.329228807632851 0.5297324129610972 0  0.430777275012463 0.469645907614299 0  1.390502090335328 0.1630587681988043 0  1.149408636841162 1.157447166816889 0  1.687853147042319 0.2519031106491252 0  0.3941048876243997 0.8956837842542459 0  1.877835046604575 0.410724628626283 0  1.348230251479045 0.6691802479050837 0  2.336954765206726 0.2613063289913201 0  2.514033953321691 1.393470229958569 0  0 0.46875 0  0.1287800079303892 0.5340043503292357 0  2.441328451749267 0.3721441168812449 0  0.9333932382689634 0.2670516659043625 0  1.13959172768211 0.5827503401695603 0  0.8703665929291606 1.395134656069543 0  1.240468926246127 0.9364063612525604 0  1.433475419570003 1.229904687600933 0  1.020534477629395 0.9101139083191684 0  1.108777781305164 0.7462713331880694 0  0.6468125623079457 0.6038935958199032 0  1.665312060212151 0.428962863572448 0  0.2512528931669099 0.5500044694745148 0  2.66971919386773 0.2450375495263612 0  2.901855502368762 0.2640467328343441 0  2.063534245742155 0.9373123558679215 0  2.031795413587333 0.1972457754676831 0  1.836924180675512 1.065887991891963 0  1.001601941364679 1.16852535211421 0  0.8051266927803291 0.9581030042697194 0  0.7620228346493961 0.7461373576581022 0  3 1.03125 0  2.084817260746984 1.176705869274554 0  2.085981885570153 0.5347538843754811 0  1.496744890324478 0.239335226969819 0  1.894594308711337 0.8570406362709689 0  1.78125 1.5 0  2.109375 1.394928085212741 0  2.71875 1.5 0  0.4943575340553394 1.217544978302146 0  0.5937185858435849 1.055241883498284 0  2.227680725187669 0.3075299344665331 0  0.5158109084499103 0.3891628929402524 0  1.96875 1.5 0  0.6036564600183
[...]
<PointData  Tensors="f_720"> 
<DataArray  type="Float64"  Name="f_720"  NumberOfComponents="9" format="ascii">-7.1733759022017658e+00 -2.2192048500878885e+00 0.0000000000000000e+00 -2.2192048500878885e+00 -1.1969493701291874e+01 0.0000000000000000e+00 0.0000000000000000e+00 0.0000000000000000e+00 0.0000000000000000e+00  3.5959374628414920e+01 2.6793164253764732e+00 0.0000000000000000e+00 2.6793164253764732e+00 2.7707591507475161e+01 0.0000000000000000e+00 0.0000000000000000e+00 0.0000000000000000e+00 0.0000000000000000e+00  2.4623473827541829e+01 3.3036504638208197e+00 0.0000000000000000e+00 3.3036504638208197e+00 3.2055184673266758e+01 0.0000000000000000e+00 0.0000000000000000e+00 0.0000000000000000e+00 0.0000000000000000e+00  4.9829260589448715e+01 1.6316245954905732e+01 0.0000000000000000e+00 1.6316245954905732e+01 1.4793756384413051e+01 0.0000000000000000e+00 0.0000000000000000e+00 0.0000000000000000e+00 0.0000000000000000e+00  7.3722830159554320e+01 8.3056916848092488e+00 0.0000000000000000e+00 8.3056916848092488e+00 -2.6549158535768420e+01 0.0000000000000000e+00 0.0000000000000000e+00 0.0000000000000000e+00 0.0000000000000000e+00  9.9319089105957218e+01 6.5559332266566317e+00 0.0000000000000000e+00 6.5559332266566317e+00 -4.7068718757638656e+01 0.0000000000000000e+00 0.0000000000000000e+00 0.0000000000000000e+00 0.0000000000000000e+00  6.2456172693525147e+01 -9.1702645709478929e+00 0.0000000000000000e+00 -9.1702645709478929e+00 -1.1770764810649522e+01 0.0000000000000000e+00 0.0000000000000000e+00 0.0000000000000000e+00 0.0000000000000000e+00  3.5316821433472995e+01 3.6936753754960257e+01 0.0000000000000000e+00 3.6936753754960257e+01 1.3171207532353579e+01 0.0000000000000000e+00 0.0000000000000000e+00 0.0000000000000000e+00 0.0000000000000000e+00  4.4085394044911126e+01 6.2902762847566670e+01 0.0000000000000000e+00 6.2902762847566670e+01 -1.7015594175744340e+00 0.0000000000000000e+00 0.0000000000000000e+00 0.0000000000000000e+00 0.0000000000000000e+00  9.9592039211991210e+00 1.2917404811340530e+01 0.0000000000000000e+00 1.2917404811340530e+01 5.6871846490656807e+01 0.0000000000000000e+00 0.0000000000000000e+00 0.0000000000000000e+00 0.0000000000000000e+00  -6.5242703518709860e+01 3.8923881647109134e+01 0.0000000000000000e+00 3.8923881647109134e+01 1.0633375756757364e+02 0.0000000000000000e+00 0.0000000000000000e+00 0.0000000000000000e+00 0.0000000000000000e+00  -5.1597276956116268e+01 7.3241809820297036e+01 0.0000000000000000e+00 7.3241809820297036e+01 9.9804729503837933e+01 0.0000000000000000e+00 0.0000000000000000e+00 0.0000000000000000e+00 0.0000000000000000e+00  3.4555493135022274e+01 9.5679670215647761e+00 0.0000000000000000e+00 9.5679670215647761e+00 3.3118905622063203e+01 0.0000000000000000e+00 0.0000000000000000e+00 0.0000000000000000e+00 0.0000000000000000e+00  2.5231965901267994e+01 -1.5350539410927372e-01 0.0000000000000000e+00 -1.5350539410927372e-01 2.0507896514307330e+01 0.0000000000000000e+00 0.0000000000000000e+00 0.0000000000000000e+00 0.0000000000000000e+00  4.4437352352025101e+01 1.4892877985716117e+01 0.0000000000000000e+00 1.4892877985716117e+01 1.1869692440682456e+01 0.0000000000000000e+00 0.0000000000000000e+00 0.0000000000000000e+00 0.0000000000000000e+00  2.8662323294482213e+01 1.6560051050035639e+01 0.0000000000000000e+00 1.6560051050035639e+01 1.9653577987781603e+01 0.0000000000000000e+00 0.0000000000000000e+00 0.0000000000000000e+00 0.0000000000000000e+00  -2.9593657909796232e+01 2.1784740193537385e+01 0.0000000000000000e+00 2.1784740193537385e+01 8.7038779448983377e+01 0.0000000000000000e+00 0.0000000000000000e+00 0.0000000000000000e+00 0.0000000000000000e+00  -2.0758231299068282e+01 5.3753325491906324e+01 0.0000000000000000e+00 5.3753325491906324e+01 7.2752472958247822e+01 0.0000000000000000e+00 0.0000000000000000e+00 0.0000000000000000e+00 0.0000000000000000e+00  2.2765080332081613e+00 -6.4708458705723713e+00 0.0000000000000000e+00 -6.4708458705723713e+00 5.7514255523422172e+01 0.0000000000000000e+00 0.0000000000000000e+00 0.0000000000000000e+00 0.0000000000000000e+00  -4.0203062360245120e+01 -4.7259270038983487e+01 0.0000000000000000e+00 -4.7259270038983487e+01 9.4378480148530443e+01 0.0000000000000000e+00 0.0000000000000000e+00 0.0000000000000000e+00 0.0000000000000000e+00  7.6361823132485895e+00 -1.6210786244357706e+01 0.0000000000000000e+00 -1.6210786244357706e+01 3.5805523465432906e+01 0.0000000000000000e+00 0.0000000000000000e+00 0.0000000000000000e+00 0.0000000000000000e+00  4.0685455905020298e+01 -1.9900975534737491e+01 0.0000000000000000e+00 -1.9900975534737491e+01 5.8584130290141649e+00 0.0000000000000000e+00 0.0000000000000000e+00 0.0000000000000000e+00 0.0000000000000000e+00  2.7669667743825894e+01 2.8291603357123374e+00 0.0000000000000000e+00 2.8291603357123374e+00 2.1561632949182101e+01 0.0000000000000000e+00 0.0000000000000000e+00 0.0000000000000000e+00 0.0000000000000000e+00  -2.7324861819623920e+00 -1.2077780534855735e+01 0.0000000000000000e+00 -1.2077780534855735e+01 6.1965044736562504e+01 0.0000000000000000e+00 0.0000000000000000e+00 0.0000000000000000e+00 0.0000000000000000e+00  -2.5619414916779103e+01 -6.3177953770976082e+01 0.0000000000000000e+00 -6.3177953770976082e+01 7.6658558117723146e+01 0.0000000000000000e+00 0.0000000000000000e+00 0.0000000000000000e+00 0.0000000000000000e+00  -7.5561396354995637e+01 -3.3486256388413679e+01 0.0000000000000000e+00 -3.3486256388413679e+01 1.0978386523796559e+02 0.0000000000000000e+00 0.0000000000000000e+00 0.0000000000000000e+00 0.0000000000000000e+00  -3.2933734611007552e+01 -2.0839655225949063e+01 0.0000000000000000e+00 -2.0839655225949063e+01 7.8555255639888003e+01 0.0000000000000000e+00 0.0000000000000000e+00 0.0000000000000000e+00 0.0000000000000000e+00  3.0991869956690977e+01 -4.2239619896836913e+01 0.0000000000000000e+00 -4.2239619896836913e+01 1.6238402372344176e+01 0.0000000000000000e+00 0.0000000000000000e+00 0.0000000000000000e+00 0.0000000000000000e+00  2.9901270223372006e+01 -4.3204903920472859e+01 0.0000000000000000e+00 -4.3204903920472859e+01 8.3339623204341624e+00 0.0000000000000000e+00 0.0000000000000000e+00 0.0000000000000000e+00 0.0000000000000000e+00  4.7989825082324245e+01 7.4785663117777466e+00 0.0000000000000000e+00 7.4785663117777466e+00 -4.4044543307502364e+00 0.0000000000000000e+00 0.0000000000000000e+00 0.0000000000000000e+00 0.0000000000000000e+00  8.6492427657409465e+01 1.9937261962121298e+01 0.0000000000000000e+00 1.9937261962121298e+01 -4.8423651989475545e+01 0.0000000000000000e+00 0.0000000000000000e+00 0.0000000000000000e+00 0.0000000000000000e+00  7.5002052800667784e+01 -2.1018888245109308e+00 0.0000000000000000e+00 -2.1018888245109308e+00 -2.4046038991201051e+01 0.0000000000000000e+00 0.0000000000000000e+00 0.0000000000000000e+00 0.0000000000000000e+00  3.5435816412810063e+01 -1.1594223224160091e+01 0.0000000000000000e+00 -1.1594223224160091e+01 1.4719295996921915e+01 0.0000000000000000e+00 0.0000000000000000e+00 0.0000000000000000e+00 0.0000000000000000e+00  2.4882775799686801e+01 -4.2342621181400686e-01 0.0000000000000000e+00 -4.2342621181400686e-01 1.9134430151907988e+01 0.0000000000000000e+00 0.0000000000000000e+00 0.0000000000000000e+00 0.0000000000000000e+00  2.8338883785349566e+01 -3.4906982993734808e+00 0.0000000000000000e+00 -3.4906982993734808e+00 2.0778870115160981e+01 0.0000000000000000e+00 0.0000000000000000e+00 0.0000000000000000e+00 0.0000000000000000e+00  -3.1240925069811496e+01 -3.0458590531130923e+01 0.0000000000000000e+00 -3.0458590531130923e+01 6.5664271713185485e+01 0.0000000000000000e+00 0.0000000000000000e+00 0.0000000000000000e+00 0.0000000000000000e+00  -4.1524119317479808e+01 -4.6266121258242769e+01 0.0000000000000000e+00 -4.6266121258242769e+01 7.8940815089938795e+01 0.0000000000000000e+00 0.0000000000000000e+00 0.0000000000000000e+00 0.0000000000000000e+00  -4.0816508380316563e+01 -2.3085652936711647e+01 0.0000000000000000e+00 -2.3085652936711647e+01 7.9666025617488501e+01 0.0000000000000000e+00 0.0000000000000000e+00 0.0000000000000000e+00 0.0000000000000000e+00  1.8528959254553254e+01 -3.0895257551643965e+01 0.0000000000000000e+00 -3.0895257551643965e+01 2.2010490458353889e+01 0.0000000000000000e+00 0.0000000000000000e+00 0.0000000000000000e+00 0.0000000000000000e+00  2.8302800137812863e+01 -5.7107385947336901e+01 0.0000000000000000e+00 -5.7107385947336901e+01 -7.2669596005960813e+00 0.0000000000000000e+00 0.0000000000000000e+00 0.0000000000000000e+00 0.0000000000000000e+00  5.0371819904447776e+01 -9.2732349131354808e-01 0.0000000000000000e+00 -9.2732349131354808e-01 -1.3218995109687768e+01 0.0000000000000000e+00 0.0000000000000000e+00 0.0000000000000000e+00 0.0000000000000000e+00  9.9477818609188375e+01 3.3292536892584849e+01 0.0000000000000000e+00 3.3292536892584849e+01 -5.3142899092736933e+01 0.0000000000000000e+00 0.0000000000000000e+00 0.0000000000000000e+00 0.0000000000000000e+00  9.7919793469862711e+01 -9.8044438212412608e+00 0.0000000000000000e+00 -9.8044438212412608e+00 -5.0960815478286221e+01 0.0000000000000000e+00 0.0000000000000000e+00 0.0000000000000000e+00 0.0000000000000000e+00  4.1524876614945455e+01 -2.5125743924114005e+01 0.0000000000000000e+00 -2.5125743924114005e+01 -6.9720714391631533e-01 0.0000000000000000e+00 0.0000000000000000e+00 0.0000000000000000e+00 0.0000000000000000e+00  2.9915619920215899e+01 -4.5705924059479912e+00 0.0000000000000000e+00 -4.5705924059479930e+00 7.1086223509703990e+00 0.0000000000000000e+00 0.0000000000000000e+00 0.0000000000000000e+00 0.0000000000000000e+00  1.6937073678450069e+01 -3.3206362542970149e+00 0.0000000000000000e+00 -3.3206362542970158e+00 4.0623346043350608e+01 0.0000000000000000e+00 0.0000000000000000e+00 0.0000000000000000e+00 0.0000000000000000e+00  -5.5523105623835034e-01 -1.1028774819596537e+01 0.0000000000000000e+00 -1.1028774819596542e+01 4.2561254641174600e+01 0.0000000000000000e+00 0.0000000000000000e+00 0.0000000000000000e+00 0.0000000000000000e+00  -6.1566737852831430e+00 -1.5007888756063204e+01 0.0000000000000000e+00 -1.5007888756063204e+01 4.7894884688499246e+01 0.0000000000000000e+00 0.0000000000000000e+00 0.0000000000000000e+00 0.0000000000000000e+00  3.4476533156622530e+01 -5.2529044533572637e+01 0.0000000000000000e+00 -5.2529044533572637e+01 1.0198170504529644e+01 0.0000000000000000e+00 0.0000000000000000e+00 0.0000000000000000e+00 0.0000000000000000e+00  2.0712556224408534e+01 -6.8465431426250944e+01 0.0000000000000000e+00 -6.8465431426250944e+01 -1.4296023696889715e+00 0.0000000000000000e+00 0.0000000000000000e+00 0.0000000000000000e+00 0.0000000000000000e+00  6.4128613432938195e+01 3.5843965344414115e+00 0.0000000000000000e+00 3.5843965344414115e+00 -2.8100498481072275e+01 0.0000000000000000e+00 0.0000000000000000e+00 0.0000000000000000e+00 0.0000000000000000e+00  9.9134865690304053e+01 9.4977843044462826e+00 0.0000000000000000e+00 9.4977843044462826e+00 -6.2175560315244219e+01 0.0000000000000000e+00 0.0000000000000000e+00 0.0000000000000000e+00 0.0000000000000000e+00  7.3376654934233059e+01 -3.9070548491380030e+01 0.0000000000000000e+00 -3.9070548491380030e+01 -3.5956633237034062e+01 0.0000000000000000e+00 0.0000000000000000e+00 0.0000000000000000e+00 0.0000000000000000e+00  1.0901463914846417e+01 -9.6157761778018820e+00 0.0000000000000000e+00 -9.6157761778018820e+00 2.0639274055587510e+01 0.0000000000000000e+00 0.0000000000000000e+00 0.0000000000000000e+00 0.0000000000000000e+00  2.7607534257070874e+01 -4.6857826275354793e+00 0.0000000000000000e+00 -4.6857826275354793e+00 9.0979518092788751e+00 0.0000000000000000e+00 0.0000000000000000e+00 0.0000000000000000e+00 0.0000000000000000e+00  3.6558523446046415e+01 2.1218388620865198e+01 0.0000000000000000e+00 2.1218388620865198e+01 -2.7014418975500271e-01 0.0000000000000000e+00 0.0000000000000000e+00 0.0000000000000000e+00 0.0000000000000000e+00  6.2258911973730513e+01 1.8563624774789584e+01 0.0000000000000000e+00 1.8563624774789584e+01 -3.0906072595306746e+01 0.0000000000000000e+00 0.0000000000000000e+00 0.0000000000000000e+00 0.0000000000000000e+00  9.1648019559898216e+01 -1.2648584675923553e+01 0.0000000000000000e+00 -1.2648584675923553e+01 -6.6315464817770732e+01 0.0000000000000000e+00 0.0000000000000000e+00 0.0000000000000000e+00 0.0000000000000000e+00  8.8683879543387789e+01 -2.9365193275999154e+01 0.0000000000000000e+00 -2.9365193275999154e+01 -5.0569151241167475e+01 0.0000000000000000e+00 0.0000000000000000e+00 0.0000000000000000e+00 0.0000000000000000e+00  2.5326910103164767e+01 2.8035469305634798e+01 0.0000000000000000e+00 2.8035469305634798e+01 1.9572468196657671e+00 0.0000000000000000e+00 0.0000000000000000e+00 0.0000000000000000e+00 0.0000000000000000e+00  1.6066293128607111e+01 3.0390688127741274e+01 0.0000000000000000e+00 3.0390688127741274e+01 1.4002274068783930e+01 0.0000000000000000e+00 0.0000000000000000e+00 0.0000000000000000e+00 0.0000000000000000e+00  -2.3865317483886159e+01 1.2891966856023304e-01 0.0000000000000000e+00 1.2891966856023304e-01 5.4988394958511137e+01 0.0000000000000000e+00 0.0000000000000000e+00 0.0000000000000000e+00 0.0000000000000000e+00  -6.7546852448814064e+01 2.5023215214735526e+01 0.0000000000000000e+00 2.5023215214735526e+01 9.1522720148390917e+01 0.0000000000000000e+00 0.0000000000000000e+00 0.0000000000000000e+00 0.0000000000000000e+00  -2.0564025780926670e+01 2.0907817202363173e+01 0.0000000000000000e+00 2.0907817202363173e+01 4.6539002826960662e+01 0.0000000000000000e+00 0.0000000000000000e+00 0.0000000000000000e+00 0.0000000000000000e+00  1.2224482537179121e+01 -1.4165419461878452e+00 0.0000000000000000e+00 -1.4165419461878452e+00 2.6638603532703190e+01 0.0000000000000000e+00 0.0000000000000000e+00 0.0000000000000000e+00 0.0000000000000000e+00  1.6864482035307073e+01 3.6429258894662392e-01 0.0000000000000000e+00 3.6429258894662392e-01 1.7357055768017545e+01 0.0000000000000000e+00 0.0000000000000000e+00 0.0000000000000000e+00 0.0000000000000000e+00  2.5896993791315889e+01 9.7073791518703434e+00 0.0000000000000000e+00 9.7073791518703434e+00 1.2211664649268026e+00 0.0000000000000000e+00 0.0000000000000000e+00 0.0000000000000000e+00 0.0000000000000000e+00  8.0923126006906443e+01 6.1924577818223003e+00 0.0000000000000000e+00 6.1924577818223003e+00 -5.0536590557214417e+01 0.0000000000000000e+00 0.0000000000000000e+00 0.0000000000000000e+00 0.0000000000000000e+00  9.9118816135385828e+01 -4.3805166196051438e+01 0.0000000000000000e+00 -4.3805166196051438e+01 -9.3402388777706733e+01 0.0000000000000000e+00 0.0000000000000000e+00 0.0000000000000000e+00 0.0000000000000000e+00  4.4649091395450050e+01 -3.6768319486456221e+01 0.0000000000000000e+00 -3.6768319486456221e+01 -3.4276607744723925e+01 0.0000000000000000e+00 0.0000000000000000e+00 0.0000000000000000e+00 0.0000000000000000e+00  5.8672105918124160e+00 -1.2092859604101724e+01 0.0000000000000000e+00 -1.2092859604101724e+01 1.2138192800260134e+01 0.0000000000000000e+00 0.0000000000000000e+00 0.0000000000000000e+00 0.0000000000000000e+00  -4.5724983035908124e+01 -2.7865273806377569e+01 0.0000000000000000e+00 -2.7865273806377569e+01 8.4008627345777100e+01 0.0000000000000000e+00 0.0000000000000000e+00 0.0000000000000000e+00 0.0000000000000000e+00  -1.1664573672508513e+02 1.8571705585366839e+01 0.0000000000000000e+00 1.8571705585366839e+01 1.4152843884558854e+02 0.0000000000000000e+00 0.0000000000000000e+00 0.0000000000000000e+00 0.0000000000000000e+00  -7.3899921106698955e+01 1.0586967573669138e+02 0.0000000000000000e+00 1.0586967573669138e+02 9.2120090862520357e+01 0.0000000000000000e+00 0.0000000000000000e+00 0.0000000000000000e+00 0.0000000000000000e+00  -8.2311654138452983e+00 -1.4354649162162730e+01 0.0000000000000000e+00 -1.4354649162162730e+01 2.7125513823055705e+01 0.0000000000000000e+00 0.0000000000000000e+00 0.0000000000000000e+00 0.0000000000000000e+00  -9.3328657404781922e+01 8.2381735378122869e+01 0.0000000000000000e+00 8.2381735378122869e+01 -4.1185944822222801e+01 0.0000000000000000e+00 0.0000000000000000e+00 0.0000000000000000e+00 0.0000000000000000e+00  2.7389243239848162e+02 1.6662680199543311e+02 0.0000000000000000e+00 1.6662680199543311e+02 5.5654457551760444e+01 0.0000000000000000e+00 0.0000000000000000e+00 0.0000000000000000e+00 0.0000000000000000e+00  1.0815360235195131e+01 8.0144183920986933e+01 0.0000000000000000e+00 8.0144183920986933e+01 7.8075311327527652e+00 0.0000000000000000e+00 0.0000000000000000e+00 0.0000000000000000e+00 0.0000000000000000e+00  -1.1742940866360334e+00 -1.7682737221711852e+02 0.0000000000000000e+00 -1.7682737221711852e+02 -9.2656884192137956e-01 0.0000000000000000e+00 0.0000000000000000e+00 0.0000000000000000e+00 0.0000000000000000e+00  3.3935713084667753e+00 1.1419208964949139e+01 0.0000000000000000e+00 1.1419208964949139e+01 -3.0110237434356414e+01 0.0000000000000000e+00 0.0000000000000000e+00 0.0000000000000000e+00 0.0000000000000000e+00  1.6855674176159365e+01 8.1744982220499551e+01 0.0000000000000000e+00 8.1744982220499551e+01 2.1771690462334615e+01 0.0000000000000000e+00 0.0000000000000000e+00 0.0000000000000000e+00 0.0000000000000000e+00  2.9586619489905143e+01 6.9648906038973664e+01 0.0000000000000000e+00 6.9648906038973664e+01 1.4870697961121641e+01 0.0000000000000000e+00 0.0000000000000000e+00 0.0000000000000000e+00 0.0000000000000000e+00  1.9349472914854427e+01 4.0508926299438230e+01 0.0000000000000000e+00 4.0508926299438230e+01 3.4072780076954842e+01 0.0000000000000000e+00 0.0000000000000000e+00 0.0000000000000000e+00 0.0000000000000000e+00  -2.4909331492908507e+01 1.5880913528741858e+00 0.0000000000000000e+00 1.5880913528741858e+00 -1.1731599976964286e+00 0.0000000000000000e+00 0.0000000000000000e+00 0.0000000000000000e+00 0.0000000000000000e+00  -6.7637497232486714e+00 -6.4770475571299562e+00 0.0000000000000000e+00 -6.4770475571299562e+00 -9.0337924241953402e+00 0.0000000000000000e+00 0.0000000000000000e+00 0.0000000000000000e+00 0.0000000000000000e+00  3.2329997710663099e+00 1.7488321003884622e+01 0.0000000000000000e+00 1.7488321003884622e+01 3.3392511014457882e+00 0.0000000000000000e+00 0.0000000000000000e+00 0.0000000000000000e+00 0.0000000000000000e+00  1.8436815303170129e+00 1.5105305442411346e+01 0.0000000000000000e+00 1.5105305442411346e+01 1.7956222826034678e+00 0.0000000000000000e+00 0.0000000000000000e+00 0.0000000000000000e+00 0.0000000000000000e+00  2.9638417838894395e+00 1.4647768101411090e+01 0.0000000000000000e+00 1.4647768101411090e+01 3.1908175028493067e+00 0.0000000000000000e+00 0.0000000000000000e+00 0.0000000000000000e+00 0.0000000000000000e+00  -2.0827365200540782e+00 -9.6823067733147483e-01 0.0000000000000000e+00 -9.6823067733147483e-01 -3.9777503485599204e+00 0.0000000000000000e+00 0.0000000000000000e+00 0.0000000000000000e+00 0.0000000000000000e+00  3.4182886178204512e+00 -1.6779153176531441e+01 0.0000000000000000e+00 -1.6779153176531441e+01 5.2319475510953417e+00 0.0000000000000000e+00 0.0000000000000000e+00 0.0000000000000000e+00 0.0000000000000000e+00  -1.5994717433782411e+00 -1.4192868172188424e+01 0.0000000000000000e+00 -1.4192868172188424e+01 -1.8406476884974736e+00 0.0000000000000000e+00 0.0000000000000000e+00 0.0000000000000000e+00 0.0000000000000000e+00  1.2319293349276530e+01 6.7781192808124722e+00 0.0000000000000000e+00 6.7781192808124722e+00 1.2349882204938718e+01 0.0000000000000000e+00 0.0000000000000000e+00 0.0000000000000000e+00 0.0000000000000000e+00  8.3961641580202926e+00 -6.0719046613843963e-01 0.0000000000000000e+00 -6.0719046613843963e-01 8.6477259935347774e+00 0.0000000000000000e+00 0.0000000000000000e+00 0.0000000000000000e+00 0.0000000000000000e+00  -2.3452829025665139e+01 -6.8070981378567936e+01 0.0000000000000000e+00 -6.8070981378567936e+01 -1.5680589472145575e+01 0.0000000000000000e+00 0.0000000000000000e+00 0.0000000000000000e+00 0.0000000000000000e+00  1.2762350095046854e+01 -1.8105602808001272e+01 0.0000000000000000e+00 -1.8105602808001272e+01 1.2685745959576918e+01 0.0000000000000000e+00 0.0000000000000000e+00 0.00000000000000