<?xml version="1.0"?>
<VTKFile type="UnstructuredGrid"  version="0.1"  >
<UnstructuredGrid>
<Piece  NumberOfPoints="4978" NumberOfCells="9630">
<Points>
<DataArray  type="Float64"  NumberOfComponents="3"  format="ascii">0 1.5 0  0 0 0  0.06190941752361886 0 0  0.06190941752361886 0.02304324263930277 0  0.07687367483109155 0.06663263502519032 0  0.1051805799723963 0.1030013474942385 0  0.1437626405485843 0.128208265731708 0  0.1884388916338735 0.1395218290209338 0  0.2343679681997119 0.1357160372315063 0  0.2765727421371398 0.117203306956754 0  0.3104796713154951 0.0859897797765535 0  0.3324144138380889 0.04545792568865569 0  0.34 0 0  0.4722134970410927 0 0  0.4722134970410927 0.02388743731615415 0  0.4894717723551502 0.0684361811740563 0  0.5216574972706967 0.1037422395464312 0  0.5644238112906292 0.1250373336124665 0  0.6119948867302293 0.1294454429183545 0  0.6579459862509499 0.1163712278761581 0  0.6960711592386857 0.08758043367405244 0  0.7212213898225662 0.04696141660432988 0  0.73 0 0  0.85 0 0  0.857341522555727 0.04635254915624212 0  0.8786474508437579 0.08816778784387098 0  0.9118322121561291 0.1213525491562421 0  0.9536474508437579 0.142658477444273 0  1 0.15 0  1.046352549156242 0.142658477444273 0  1.088167787843871 0.1213525491562421 0  1.121352549156242 0.08816778784387097 0  1.142658477444273 0.04635254915624211 0  1.15 0 0  1.461909417523619 0 0  1.461909417523619 0.02304324263930277 0  1.476873674831092 0.06663263502519032 0  1.505180579972396 0.1030013474942385 0  1.543762640548584 0.128208265731708 0  1.588438891633874 0.1395218290209338 0  1.634367968199712 0.1357160372315063 0  1.67657274213714 0.117203306956754 0  1.710479671315495 0.0859897797765535 0  1.732414413838089 0.04545792568865569 0  1.74 0 0  1.78 0 0  1.789134456098646 0.04592201188381079 0  1.815147186257614 0.08485281374238571 0  1.854077988116189 0.1108655439013544 0  1.9 0.12 0  1.945922011883811 0.1108655439013544 0  1.984852813742386 0.08485281374238569 0  2.010865543901355 0.04592201188381077 0  2.02 0 0  2.161909417523619 0 0  2.161909417523619 0.02304324263930277 0  2.176873674831092 0.06663263502519032 0  2.205180579972396 0.1030013474942385 0  2.243762640548584 0.128208265731708 0  2.288438891633873 0.1395218290209338 0  2.334367968199712 0.1357160372315063 0  2.37657274213714 0.117203306956754 0  2.410479671315495 0.0859897797765535 0  2.432414413838089 0.04545792568865569 0  2.44 0 0  2.472213497041093 0 0  2.472213497041093 0.02388743731615415 0  2.48947177235515 0.0684361811740563 0  2.521657497270697 0.1037422395464312 0  2.564423811290629 0.1250373336124665 0  2.611994886730229 0.1294454429183545 0  2.65794598625095 0.1163712278761581 0  2.696071159238686 0.08758043367405244 0  2.721221389822567 0.04696141660432988 0  2.73 0 0  3 0 0  3 1.5 0  0 0.75 0  3 0.75 0  1.5 1.5 0  0 0.375 0  0 0.1875 0  0 0.09375 0  0.75 1.5 0  2.25 1.5 0  1.137279452465634 0.8667483509386543 0  2.055384907633385 0.8149748422668953 0  0.5545701656450307 0.9454298343549693 0  2.545804583542266 1.045804583542266 0  2.462951104370831 0.5854482317237805 0  1.6063536999151 1.018574336065804 0  0.7683179692414909 0.5511078775270282 0  1.647896012796697 0.5780189144999826 0  1.875 1.5 0  0.3683226130580748 0.5893782185394094 0  0.375 1.5 0  0 1.125 0  3 0.375 0  1.125 1.5 0  3 1.125 0  2.625 1.5 0  1.247216233241016 0.4851891764902285 0  0.8779404074027722 1.143194262378568 0  1.992337703792022 0.4642129848858538 0  2.200035536160075 1.144037289792772 0  1.3125 1.206118267007311 0  1.882280687299076 1.18026905614258 0  0.8375010042452264 0.8437030129736524 0  0.2703628106324028 0.8673582108832857 0  0.336944444033578 1.181320038574892 0  1.424720841531434 0.7792108746582741 0  2.763716218670896 0.5625 0  0.6112325230261646 1.216037756380734 0  2.429292395855053 1.293345775631689 0  2.798691155259055 0.9375 0  2.340750225085827 0.8450755885956063 0  2.74506315455788 1.24506315455788 0  0.4115012634770826 0.3359864655288552 0  1.6875 1.5 0  1.553212834656815 1.259295117559057 0  1.783849920010049 0.8130750647527071 0  2.590242300399914 0.800172794523538 0  2.206538789959823 0.6067588023913982 0  1.022769083327432 0.627137676743421 0  2.0625 1.5 0  2.566013274303806 0.3667751817948443 0  2.317230353528816 0.3853650267397287 0  0.9546600707351991 0.3912757388497677 0  1.76490060939521 0.3540000691256479 0  1.398169292756645 0.3089248951275104 0  0.1875 1.5 0  0.6961815191548208 0.3380429757712475 0  0.6390751493076395 0.7361434669345621 0  1.385952842918209 0.9972233609662619 0  1.082019261833385 1.265823315390121 0  2.784258672215756 0.3048233224522298 0  0 0.5625 0  0.2130557952202133 0.4325455696870932 0  2.110276358430479 0.2903936515686117 0  0 1.3125 0  0.5618175915722093 0.5022778936897083 0  1.438605690073396 0.5702366817214194 0  1.851778102902867 0.6169409446553686 0  0.9375 1.5 0  1.918499765346388 0.9737703250858507 0  1.066617221574711 1.060327143126178 0  0.17830064634795 0.65625 0  1.139464543633635 0.3182162642668528 0  1.214887260891528 0.6824917486258804 0  0.4470960700565646 0.7803305254813445 0  2.056073894593081 1.292965518236122 0  0.7800417460951754 1.309431349558015 0  0.7102942521579887 1.054059105222724 0  2.772203778896419 0.7508393899039921 0  3 0.9375 0  2.4375 1.5 0  0.5625 1.5 0  3 0.5625 0  1.3125 1.5 0  0 0.9375 0  3 1.3125 0  2.8125 1.5 0  3 0.1875 0  1.74009613212014 1.312845810865967 0  0.1858279553328271 1.04932632064409 0  1.582414108002925 0.3243096672004901 0  0.4576542986122824 1.328517530191622 0  1.30595470876181 0 0  0.1616828829631953 1.229471150973137 0  1.600689448835705 0.8342777580615786 0  2.184954406689295 0.9543424310663166 0  2.356848459734244 1.033731425282726 0  2.249618867339344 1.318565528322325 0  2.031012140730151 0.6383085966483963 0  1.264473591492607 0.1926369230867345 0  1.93294708275428 0.2969945700235964 0  1.406271966518558 1.353045118606616 0  0.2855042944080262 1.351202341158466 0  2.163692386827529 0.4469681835123645 0  2.058709899218631 1.05982604745508 0  1.21875 1.361760465218127 0  1.232585115983139 1.060656719142284 0  1.682328919476849 1.161572426192166 0  0.4864612871934715 1.100927295036068 0  2.842393003195402 0.1547034389615206 0  1.901710724058898 1.340659870484523 0  2.578488906869203 1.212378831230944 0  0.346730023619794 1.013455011579226 0  1.758789788261688 0.970834021568154 0  0.9209577900333827 0.984909924281538 0  2.461973640748163 0.2490632223012221 0  2.833434714842781 1.102015011431888 0  1.485476187845101 1.118115752354218 0  0.7869575052851041 0.2127716822913992 0  1.091585464669657 0.4673676525872368 0  0.9308375558444295 1.286291202675726 0  2.609275627299536 0.5207885309723005 0  2.859418780372727 0.4404724026784034 0  0.1368795735450182 0.2913992261536034 0  0.5088670694303536 0.6431238265444117 0  0.9924988599062848 0.7887715626383616 0  0.8674753477047706 0.6821390867986818 0  0.6993572585883594 0.9038049302516018 0  1.53924450853783 0.6818717864694561 0  1.27954362181495 0.818196911265721 0  2.885754890315292 0.65625 0  0.1199579452929171 0.84375 0  0.3101130847613819 0.7251157056441525 0  2.683488575489726 1.10528265125029 0  2.637912450120847 1.350340704724588 0  0.65625 1.387568746661148 0  2.204969505432462 0.7645924845263576 0  2.34230217156612 0.6870332922078795 0  2.458336421316689 0.930056573232228 0  1.547170662421109 0.4687109428674099 0  0.55426355401875 0.2785752421136156 0  1.927690911684502 0.7425770788416013 0  2.650983472818039 0.6639703826486528 0  0.2807744135836687 0.2731407085328489 0  2.697063502273202 0.4130460425434029 0  1.768721210125562 0.4985606178023466 0  1.59375 1.394491048145999 0  1.03125 1.39617417476255 0  2.649124789533757 0.9376608889715211 0  2.899345577629528 0.84375 0  2.448792339301353 1.151333513094988 0  2.455516477512143 0.7671738041202795 0  0.1479512725554237 1.367277900867101 0  1.733007556765436 0.6856365299097277 0  2.865 0 0  0.407900401917371 0.1920322062602331 0  1.482893533441057 0.9020086108979886 0  2.902194538181383 1.21875 0  2.860324471164851 1.360324471164851 0  0.9128790560808855 0.5311054613533476 0  0.7396036279203969 1.183264973390871 0  1.379392725427689 0.4456149894503371 0  0.8305263666170877 0.339868595109382 0  2.352639297837627 1.399880277695907 0  2.15625 1.5 0  2.32277762299786 1.203473773731512 0  1.818471673600783 0.235727380341035 0  1.269129800285538 0.3222823294390822 0  2.329228807632851 0.5297324129610972 0  0.430777275012463 0.469645907614299 0  1.390502090335328 0.1630587681988043 0  1.149408636841162 1.157447166816889 0  1.687853147042319 0.2519031106491252 0  0.3941048876243997 0.8956837842542459 0  1.877835046604575 0.410724628626283 0  1.348230251479045 0.6691802479050837 0  2.336954765206726 0.2613063289913201 0  2.514033953321691 1.393470229958569 0  0 0.46875 0  0.1287800079303892 0.5340043503292357 0  2.441328451749267 0.3721441168812449 0  0.9333932382689634 0.2670516659043625 0  1.13959172768211 0.5827503401695603 0  0.8703665929291606 1.395134656069543 0  1.240468926246127 0.9364063612525604 0  1.433475419570003 1.229904687600933 0  1.020534477629395 0.9101139083191684 0  1.108777781305164 0.7462713331880694 0  0.6468125623079457 0.6038935958199032 0  1.665312060212151 0.428962863572448 0  0.2512528931669099 0.5500044694745148 0  2.66971919386773 0.2450375495263612 0  2.901855502368762 0.2640467328343441 0  2.063534245742155 0.9373123558679215 0  2.031795413587333 0.1972457754676831 0  1.836924180675512 1.065887991891963 0  1.001601941364679 1.16852535211421 0  0.8051266927803291 0.9581030042697194 0  0.7620228346493961 0.7461373576581022 0  3 1.03125 0  2.084817260746984 1.176705869274554 0  2.085981885570153 0.5347538843754811 0  1.496744890324478 0.239335226969819 0  1.894594308711337 0.8570406362709689 0  1.78125 1.5 0  2.109375 1.394928085212741 0  2.71875 1.5 0  0.4943575340553394 1.217544978302146 0  0.5937185858435849 1.055241883498284 0  2.227680725187669 0.3075299344665331 0  0.5158109084499103 0.3891628929402524 0  1.96875 1.5 0  0.6036564600183
[...]
<PointData  Tensors="f_340"> 
<DataArray  type="Float64"  Name="f_340"  NumberOfComponents="9" format="ascii">-9.3192879306664693e+00 -8.9403084384280629e-01 0.0000000000000000e+00 -8.9403084384280629e-01 -1.1240450573221850e+01 0.0000000000000000e+00 0.0000000000000000e+00 0.0000000000000000e+00 0.0000000000000000e+00  3.5154039535078724e+01 1.5691163627038345e+00 0.0000000000000000e+00 1.5691163627038345e+00 2.8562032398615113e+01 0.0000000000000000e+00 0.0000000000000000e+00 0.0000000000000000e+00 0.0000000000000000e+00  2.5749239420169939e+01 2.6170350594906511e+00 0.0000000000000000e+00 2.6170350594906511e+00 3.3969188097303871e+01 0.0000000000000000e+00 0.0000000000000000e+00 0.0000000000000000e+00 0.0000000000000000e+00  4.3269429844182262e+01 1.1121954223104021e+01 0.0000000000000000e+00 1.1121954223104021e+01 2.1852883659241961e+01 0.0000000000000000e+00 0.0000000000000000e+00 0.0000000000000000e+00 0.0000000000000000e+00  5.2291083874972976e+01 3.0949531615273118e+00 0.0000000000000000e+00 3.0949531615273118e+00 -2.0083578533078774e+00 0.0000000000000000e+00 0.0000000000000000e+00 0.0000000000000000e+00 0.0000000000000000e+00  6.7426240957539221e+01 8.9531452164790544e+00 0.0000000000000000e+00 8.9531452164790544e+00 -1.1898898465005276e+01 0.0000000000000000e+00 0.0000000000000000e+00 0.0000000000000000e+00 0.0000000000000000e+00  4.7138954520908783e+01 -2.5802419988363834e+00 0.0000000000000000e+00 -2.5802419988363834e+00 3.6985577167983377e+00 0.0000000000000000e+00 0.0000000000000000e+00 0.0000000000000000e+00 0.0000000000000000e+00  3.1500562465940355e+01 1.6974433095208191e+01 0.0000000000000000e+00 1.6974433095208191e+01 1.6685027401207190e+01 0.0000000000000000e+00 0.0000000000000000e+00 0.0000000000000000e+00 0.0000000000000000e+00  3.4313882799369360e+01 3.4521981737782525e+01 0.0000000000000000e+00 3.4521981737782525e+01 9.1655803305326113e+00 0.0000000000000000e+00 0.0000000000000000e+00 0.0000000000000000e+00 0.0000000000000000e+00  1.8454772959468002e+01 7.7936024551945415e+00 0.0000000000000000e+00 7.7936024551945415e+00 4.2898649089913633e+01 0.0000000000000000e+00 0.0000000000000000e+00 0.0000000000000000e+00 0.0000000000000000e+00  -1.9321580869661585e+01 1.8266795159012997e+01 0.0000000000000000e+00 1.8266795159012997e+01 6.5506150232333013e+01 0.0000000000000000e+00 0.0000000000000000e+00 0.0000000000000000e+00 0.0000000000000000e+00  -1.5548734146770689e+01 3.5893460867781769e+01 0.0000000000000000e+00 3.5893460867781769e+01 6.5781162367297739e+01 0.0000000000000000e+00 0.0000000000000000e+00 0.0000000000000000e+00 0.0000000000000000e+00  3.5443836723521294e+01 7.1110005311056748e+00 0.0000000000000000e+00 7.1110005311056748e+00 2.5562361016684818e+01 0.0000000000000000e+00 0.0000000000000000e+00 0.0000000000000000e+00 0.0000000000000000e+00  2.3783150392557481e+01 6.7418526524986555e-01 0.0000000000000000e+00 6.7418526524986555e-01 2.4389400386250315e+01 0.0000000000000000e+00 0.0000000000000000e+00 0.0000000000000000e+00 0.0000000000000000e+00  3.7011211506158801e+01 9.0587011172467520e+00 0.0000000000000000e+00 9.0587011172467520e+00 1.9115640517994478e+01 0.0000000000000000e+00 0.0000000000000000e+00 0.0000000000000000e+00 0.0000000000000000e+00  2.5586536748628497e+01 8.0944187023288698e+00 0.0000000000000000e+00 8.0944187023288698e+00 2.2776833796403658e+01 0.0000000000000000e+00 0.0000000000000000e+00 0.0000000000000000e+00 0.0000000000000000e+00  -2.0460604770833837e+00 1.1562090046991278e+01 0.0000000000000000e+00 1.1562090046991278e+01 5.7727262633090426e+01 0.0000000000000000e+00 0.0000000000000000e+00 0.0000000000000000e+00 0.0000000000000000e+00  2.7820470734372873e+00 2.8575694801639948e+01 0.0000000000000000e+00 2.8575694801639948e+01 4.8499188880008433e+01 0.0000000000000000e+00 0.0000000000000000e+00 0.0000000000000000e+00 0.0000000000000000e+00  1.2227100459084188e+01 -3.2938446316179930e+00 0.0000000000000000e+00 -3.2938446316179930e+00 4.2042861484891489e+01 0.0000000000000000e+00 0.0000000000000000e+00 0.0000000000000000e+00 0.0000000000000000e+00  -9.4988020123134032e+00 -2.5791615735777793e+01 0.0000000000000000e+00 -2.5791615735777793e+01 6.3045768360122665e+01 0.0000000000000000e+00 0.0000000000000000e+00 0.0000000000000000e+00 0.0000000000000000e+00  1.4818429552140890e+01 -8.3772944917992920e+00 0.0000000000000000e+00 -8.3772944917992920e+00 2.8726003218375723e+01 0.0000000000000000e+00 0.0000000000000000e+00 0.0000000000000000e+00 0.0000000000000000e+00  3.1756696496037087e+01 -1.0100855908342751e+01 0.0000000000000000e+00 -1.0100855908342751e+01 1.5669563574964815e+01 0.0000000000000000e+00 0.0000000000000000e+00 0.0000000000000000e+00 0.0000000000000000e+00  2.5522332535988706e+01 9.0224453760062950e-01 0.0000000000000000e+00 9.0224453760062950e-01 2.3473746281188578e+01 0.0000000000000000e+00 0.0000000000000000e+00 0.0000000000000000e+00 0.0000000000000000e+00  6.6163681546767812e+00 -5.6268500322047119e+00 0.0000000000000000e+00 -5.6268500322047119e+00 4.7529720421910305e+01 0.0000000000000000e+00 0.0000000000000000e+00 0.0000000000000000e+00 0.0000000000000000e+00  -1.6832727163104655e-01 -2.8756835855722386e+01 0.0000000000000000e+00 -2.8756835855722386e+01 5.2095984191539358e+01 0.0000000000000000e+00 0.0000000000000000e+00 0.0000000000000000e+00 0.0000000000000000e+00  -2.4621514111820662e+01 -1.6251076152731478e+01 0.0000000000000000e+00 -1.6251076152731478e+01 6.4666278041401370e+01 0.0000000000000000e+00 0.0000000000000000e+00 0.0000000000000000e+00 0.0000000000000000e+00  -4.9050758356534478e+00 -1.1942421758422583e+01 0.0000000000000000e+00 -1.1942421758422583e+01 4.9519307304255790e+01 0.0000000000000000e+00 0.0000000000000000e+00 0.0000000000000000e+00 0.0000000000000000e+00  2.8622654827041970e+01 -2.1597059420908767e+01 0.0000000000000000e+00 -2.1597059420908767e+01 2.0414623834139018e+01 0.0000000000000000e+00 0.0000000000000000e+00 0.0000000000000000e+00 0.0000000000000000e+00  2.9009515890805840e+01 -1.9567113461851779e+01 0.0000000000000000e+00 -1.9567113461851779e+01 1.2830390782930262e+01 0.0000000000000000e+00 0.0000000000000000e+00 0.0000000000000000e+00 0.0000000000000000e+00  3.5819904083784976e+01 7.7321697134210632e-01 0.0000000000000000e+00 7.7321697134210632e-01 7.2389880233590924e+00 0.0000000000000000e+00 0.0000000000000000e+00 0.0000000000000000e+00 0.0000000000000000e+00  5.3354457009014354e+01 7.0950048823709926e+00 0.0000000000000000e+00 7.0950048823709926e+00 -1.2502623360515932e+01 0.0000000000000000e+00 0.0000000000000000e+00 0.0000000000000000e+00 0.0000000000000000e+00  5.0859453179541077e+01 -1.8825114809451133e+00 0.0000000000000000e+00 -1.8825114809451133e+00 3.6013290408744175e-01 0.0000000000000000e+00 0.0000000000000000e+00 0.0000000000000000e+00 0.0000000000000000e+00  3.1913317996287827e+01 -7.8720042057128810e+00 0.0000000000000000e+00 -7.8720042057128810e+00 1.8684978101480617e+01 0.0000000000000000e+00 0.0000000000000000e+00 0.0000000000000000e+00 0.0000000000000000e+00  2.6377098255019007e+01 -5.2164714008996294e-01 0.0000000000000000e+00 -5.2164714008996294e-01 2.2059745039459454e+01 0.0000000000000000e+00 0.0000000000000000e+00 0.0000000000000000e+00 0.0000000000000000e+00  3.1320173920936504e+01 -4.6315723025649520e+00 0.0000000000000000e+00 -4.6315723025649520e+00 1.9465593751024905e+01 0.0000000000000000e+00 0.0000000000000000e+00 0.0000000000000000e+00 0.0000000000000000e+00  -4.4472937509642350e+00 -1.6186389832473150e+01 0.0000000000000000e+00 -1.6186389832473150e+01 4.2231866469233360e+01 0.0000000000000000e+00 0.0000000000000000e+00 0.0000000000000000e+00 0.0000000000000000e+00  -8.2767014694683585e+00 -2.0721104873044958e+01 0.0000000000000000e+00 -2.0721104873044958e+01 5.1177009322015714e+01 0.0000000000000000e+00 0.0000000000000000e+00 0.0000000000000000e+00 0.0000000000000000e+00  -8.5488577490934929e+00 -1.0923909981076452e+01 0.0000000000000000e+00 -1.0923909981076452e+01 4.9727110240765256e+01 0.0000000000000000e+00 0.0000000000000000e+00 0.0000000000000000e+00 0.0000000000000000e+00  1.9260863009416735e+01 -1.7440258607880640e+01 0.0000000000000000e+00 -1.7440258607880640e+01 2.0475861767023190e+01 0.0000000000000000e+00 0.0000000000000000e+00 0.0000000000000000e+00 0.0000000000000000e+00  2.5642868401753933e+01 -2.7786397230772728e+01 0.0000000000000000e+00 -2.7786397230772728e+01 2.1711647184476970e+00 0.0000000000000000e+00 0.0000000000000000e+00 0.0000000000000000e+00 0.0000000000000000e+00  3.6186302987603540e+01 -2.0030920479239120e+00 0.0000000000000000e+00 -2.0030920479239120e+00 -5.5559459300595104e-01 0.0000000000000000e+00 0.0000000000000000e+00 0.0000000000000000e+00 0.0000000000000000e+00  6.1587246655877259e+01 1.4909883338393037e+01 0.0000000000000000e+00 1.4909883338393037e+01 -1.5494406579722179e+01 0.0000000000000000e+00 0.0000000000000000e+00 0.0000000000000000e+00 0.0000000000000000e+00  6.2860808757970268e+01 -6.7659934332328850e+00 0.0000000000000000e+00 -6.7659934332328850e+00 -1.6220960576484092e+01 0.0000000000000000e+00 0.0000000000000000e+00 0.0000000000000000e+00 0.0000000000000000e+00  3.4908668037540046e+01 -1.5443996682651179e+01 0.0000000000000000e+00 -1.5443996682651175e+01 8.6380549956752866e+00 0.0000000000000000e+00 0.0000000000000000e+00 0.0000000000000000e+00 0.0000000000000000e+00  2.9939753852920234e+01 -3.7199518840296819e+00 0.0000000000000000e+00 -3.7199518840296819e+00 1.0876298321518371e+01 0.0000000000000000e+00 0.0000000000000000e+00 0.0000000000000000e+00 0.0000000000000000e+00  2.0092303564382199e+01 -2.3890318218473494e+00 0.0000000000000000e+00 -2.3890318218473485e+00 3.5476629757528727e+01 0.0000000000000000e+00 0.0000000000000000e+00 0.0000000000000000e+00 0.0000000000000000e+00  1.1412329038501673e+01 -2.5071610153700048e+00 0.0000000000000000e+00 -2.5071610153700048e+00 3.2844509125156030e+01 0.0000000000000000e+00 0.0000000000000000e+00 0.0000000000000000e+00 0.0000000000000000e+00  9.5388188022128340e+00 -8.3913826868406662e+00 0.0000000000000000e+00 -8.3913826868406662e+00 3.2655943459153740e+01 0.0000000000000000e+00 0.0000000000000000e+00 0.0000000000000000e+00 0.0000000000000000e+00  2.7856685959331912e+01 -2.6720913048381977e+01 0.0000000000000000e+00 -2.6720913048381977e+01 1.6592399334068581e+01 0.0000000000000000e+00 0.0000000000000000e+00 0.0000000000000000e+00 0.0000000000000000e+00  2.0401773390814462e+01 -3.4058260839655262e+01 0.0000000000000000e+00 -3.4058260839655262e+01 5.7901872945410817e+00 0.0000000000000000e+00 0.0000000000000000e+00 0.0000000000000000e+00 0.0000000000000000e+00  4.1635950770920161e+01 -7.8870710439200764e-01 0.0000000000000000e+00 -7.8870710439200764e-01 -6.5999958062834789e+00 0.0000000000000000e+00 0.0000000000000000e+00 0.0000000000000000e+00 0.0000000000000000e+00  5.8702773479944035e+01 2.8179242533466056e+00 0.0000000000000000e+00 2.8179242533466056e+00 -2.0133517112306574e+01 0.0000000000000000e+00 0.0000000000000000e+00 0.0000000000000000e+00 0.0000000000000000e+00  4.9421797286081038e+01 -2.1111114631636486e+01 0.0000000000000000e+00 -2.1111114631636486e+01 -1.1783822873625171e+01 0.0000000000000000e+00 0.0000000000000000e+00 0.0000000000000000e+00 0.0000000000000000e+00  1.3904541110795495e+01 -6.6441200785394816e+00 0.0000000000000000e+00 -6.6441200785394816e+00 2.3981041633500094e+01 0.0000000000000000e+00 0.0000000000000000e+00 0.0000000000000000e+00 0.0000000000000000e+00  2.7183283950706034e+01 -3.0681407768296776e+00 0.0000000000000000e+00 -3.0681407768296776e+00 1.1035973670387339e+01 0.0000000000000000e+00 0.0000000000000000e+00 0.0000000000000000e+00 0.0000000000000000e+00  3.0024147882548608e+01 1.3041370342603814e+01 0.0000000000000000e+00 1.3041370342603814e+01 8.7366719436669662e+00 0.0000000000000000e+00 0.0000000000000000e+00 0.0000000000000000e+00 0.0000000000000000e+00  4.0989021359712389e+01 1.0149838839487998e+01 0.0000000000000000e+00 1.0149838839487998e+01 -6.2590959189122177e+00 0.0000000000000000e+00 0.0000000000000000e+00 0.0000000000000000e+00 0.0000000000000000e+00  5.5617653702982764e+01 -3.2484373628282484e+00 0.0000000000000000e+00 -3.2484373628282484e+00 -2.3355148554842149e+01 0.0000000000000000e+00 0.0000000000000000e+00 0.0000000000000000e+00 0.0000000000000000e+00  5.8261808804411899e+01 -1.2799152879320244e+01 0.0000000000000000e+00 -1.2799152879320244e+01 -1.9969276409274393e+01 0.0000000000000000e+00 0.0000000000000000e+00 0.0000000000000000e+00 0.0000000000000000e+00  2.1470509831919959e+01 1.2844879427401821e+01 0.0000000000000000e+00 1.2844879427401821e+01 5.4509409972760317e+00 0.0000000000000000e+00 0.0000000000000000e+00 0.0000000000000000e+00 0.0000000000000000e+00  1.5776821573965249e+01 1.4414166916515155e+01 0.0000000000000000e+00 1.4414166916515155e+01 1.4341855390140871e+01 0.0000000000000000e+00 0.0000000000000000e+00 0.0000000000000000e+00 0.0000000000000000e+00  -3.4831707535505170e+00 1.5571772717320560e+00 0.0000000000000000e+00 1.5571772717320560e+00 3.5768760747981474e+01 0.0000000000000000e+00 0.0000000000000000e+00 0.0000000000000000e+00 0.0000000000000000e+00  -2.4714781304293755e+01 1.0879297735109276e+01 0.0000000000000000e+00 1.0879297735109276e+01 5.3139703949935111e+01 0.0000000000000000e+00 0.0000000000000000e+00 0.0000000000000000e+00 0.0000000000000000e+00  -3.8703263907107153e+00 8.5415325389626418e+00 0.0000000000000000e+00 8.5415325389626418e+00 3.1062450710567973e+01 0.0000000000000000e+00 0.0000000000000000e+00 0.0000000000000000e+00 0.0000000000000000e+00  1.3945311350564541e+01 -5.7245309333573302e-01 0.0000000000000000e+00 -5.7245309333573302e-01 2.5621599483781964e+01 0.0000000000000000e+00 0.0000000000000000e+00 0.0000000000000000e+00 0.0000000000000000e+00  1.7465937213864414e+01 4.6356259004058825e-01 0.0000000000000000e+00 4.6356259004058825e-01 1.8293320604730994e+01 0.0000000000000000e+00 0.0000000000000000e+00 0.0000000000000000e+00 0.0000000000000000e+00  2.3507208607763719e+01 7.9923564208907569e+00 0.0000000000000000e+00 7.9923564208907569e+00 5.5478267379910804e+00 0.0000000000000000e+00 0.0000000000000000e+00 0.0000000000000000e+00 0.0000000000000000e+00  5.1339270156202716e+01 3.7715022177206003e-01 0.0000000000000000e+00 3.7715022177206003e-01 -2.3277465692467498e+01 0.0000000000000000e+00 0.0000000000000000e+00 0.0000000000000000e+00 0.0000000000000000e+00  5.6743490212020340e+01 -2.3152642854716216e+01 0.0000000000000000e+00 -2.3152642854716216e+01 -4.3798654780674781e+01 0.0000000000000000e+00 0.0000000000000000e+00 0.0000000000000000e+00 0.0000000000000000e+00  2.6734457834673186e+01 -1.9124972312848215e+01 0.0000000000000000e+00 -1.9124972312848215e+01 -1.4196135381451466e+01 0.0000000000000000e+00 0.0000000000000000e+00 0.0000000000000000e+00 0.0000000000000000e+00  7.9237107502807156e+00 -6.7933531282997395e+00 0.0000000000000000e+00 -6.7933531282997395e+00 1.0804105871007113e+01 0.0000000000000000e+00 0.0000000000000000e+00 0.0000000000000000e+00 0.0000000000000000e+00  -1.6465448564401537e+01 -1.4055153797068742e+01 0.0000000000000000e+00 -1.4055153797068742e+01 4.6507720420514154e+01 0.0000000000000000e+00 0.0000000000000000e+00 0.0000000000000000e+00 0.0000000000000000e+00  -4.9726428054202053e+01 1.8867667817301392e-01 0.0000000000000000e+00 1.8867667817301392e-01 7.9271041031276056e+01 0.0000000000000000e+00 0.0000000000000000e+00 0.0000000000000000e+00 0.0000000000000000e+00  -3.3249648529022593e+01 5.0301575962903883e+01 0.0000000000000000e+00 5.0301575962903883e+01 4.6179011859396638e+01 0.0000000000000000e+00 0.0000000000000000e+00 0.0000000000000000e+00 0.0000000000000000e+00  -4.8151584285327651e+00 -1.2369544278931206e+01 0.0000000000000000e+00 -1.2369544278931206e+01 1.9442364895968023e+01 0.0000000000000000e+00 0.0000000000000000e+00 0.0000000000000000e+00 0.0000000000000000e+00  -6.4571902043302174e+01 6.0955361982121765e+01 0.0000000000000000e+00 6.0955361982121765e+01 -3.4471311320123966e+01 0.0000000000000000e+00 0.0000000000000000e+00 0.0000000000000000e+00 0.0000000000000000e+00  1.3660331062246610e+02 8.4129122033403704e+01 0.0000000000000000e+00 8.4129122033403704e+01 3.1888250122859002e+01 0.0000000000000000e+00 0.0000000000000000e+00 0.0000000000000000e+00 0.0000000000000000e+00  1.1066768147383108e+01 4.0616291757015759e+01 0.0000000000000000e+00 4.0616291757015759e+01 8.4501869723162688e+00 0.0000000000000000e+00 0.0000000000000000e+00 0.0000000000000000e+00 0.0000000000000000e+00  9.7613076778435182e-01 -9.4088267200057160e+01 0.0000000000000000e+00 -9.4088267200057160e+01 -1.2533060689987758e+00 0.0000000000000000e+00 0.0000000000000000e+00 0.0000000000000000e+00 0.0000000000000000e+00  -4.1668996230796349e+00 5.8549803432712766e+00 0.0000000000000000e+00 5.8549803432712766e+00 -2.5057671064841344e+01 0.0000000000000000e+00 0.0000000000000000e+00 0.0000000000000000e+00 0.0000000000000000e+00  1.7883681206302430e+01 4.1143948371257238e+01 0.0000000000000000e+00 4.1143948371257238e+01 2.1612666730190913e+01 0.0000000000000000e+00 0.0000000000000000e+00 0.0000000000000000e+00 0.0000000000000000e+00  2.7040619708725778e+01 3.2809470761031250e+01 0.0000000000000000e+00 3.2809470761031250e+01 1.9049453698793037e+01 0.0000000000000000e+00 0.0000000000000000e+00 0.0000000000000000e+00 0.0000000000000000e+00  2.2836050436925316e+01 1.9728640239908117e+01 0.0000000000000000e+00 1.9728640239908117e+01 3.1834434373045188e+01 0.0000000000000000e+00 0.0000000000000000e+00 0.0000000000000000e+00 0.0000000000000000e+00  -2.1451892044921603e+01 -1.1589050060852424e+00 0.0000000000000000e+00 -1.1589050060852424e+00 -4.6672619546730640e+00 0.0000000000000000e+00 0.0000000000000000e+00 0.0000000000000000e+00 0.0000000000000000e+00  -7.5232804259376644e+00 -2.6142187221532738e+00 0.0000000000000000e+00 -2.6142187221532738e+00 -7.7357257594616256e+00 0.0000000000000000e+00 0.0000000000000000e+00 0.0000000000000000e+00 0.0000000000000000e+00  3.5415984671421832e+00 7.2824154321243544e+00 0.0000000000000000e+00 7.2824154321243544e+00 3.5412279986510971e+00 0.0000000000000000e+00 0.0000000000000000e+00 0.0000000000000000e+00 0.0000000000000000e+00  2.0370569141328598e+00 6.2896944421564669e+00 0.0000000000000000e+00 6.2896944421564669e+00 2.0403547056122546e+00 0.0000000000000000e+00 0.0000000000000000e+00 0.0000000000000000e+00 0.0000000000000000e+00  3.2910033576635347e+00 6.0991637400003027e+00 0.0000000000000000e+00 6.0991637400003027e+00 3.3534279781097722e+00 0.0000000000000000e+00 0.0000000000000000e+00 0.0000000000000000e+00 0.0000000000000000e+00  -2.2295634748036117e+00 -1.2833140612366253e-01 0.0000000000000000e+00 -1.2833140612366253e-01 -3.1449756650772929e+00 0.0000000000000000e+00 0.0000000000000000e+00 0.0000000000000000e+00 0.0000000000000000e+00  4.1410798730549692e+00 -6.9689015951589193e+00 0.0000000000000000e+00 -6.9689015951589193e+00 4.8216577998987633e+00 0.0000000000000000e+00 0.0000000000000000e+00 0.0000000000000000e+00 0.0000000000000000e+00  -1.4069697961433443e+00 -5.8993506449712463e+00 0.0000000000000000e+00 -5.8993506449712463e+00 -1.5041365129322473e+00 0.0000000000000000e+00 0.0000000000000000e+00 0.0000000000000000e+00 0.0000000000000000e+00  1.2607469432340567e+01 2.8325595844097382e+00 0.0000000000000000e+00 2.8325595844097382e+00 1.2629447608010478e+01 0.0000000000000000e+00 0.0000000000000000e+00 0.0000000000000000e+00 0.0000000000000000e+00  8.7156406275159810e+00 -2.3100452688363296e-01 0.0000000000000000e+00 -2.3100452688363296e-01 8.8373735236076314e+00 0.0000000000000000e+00 0.0000000000000000e+00 0.0000000000000000e+00 0.0000000000000000e+00  -1.8233333503421889e+01 -3.2043983871889829e+01 0.0000000000000000e+00 -3.2043983871889829e+01 -1.5378131581124364e+01 0.0000000000000000e+00 0.0000000000000000e+00 0.0000000000000000e+00 0.0000000000000000e+00  1.2992927298020874e+01 -7.5201929674976880e+00 0.0000000000000000e+00 -7.5201929674976880e+00 1.2963115173279958e+01 0.0000000000000000e+00 0.0000000000000000e+00 0.0000000000000000e+00 0.0