<?xml version="1.0"?>
<VTKFile type="UnstructuredGrid"  version="0.1"  >
<UnstructuredGrid>
<Piece  NumberOfPoints="4978" NumberOfCells="9630">
<Points>
<DataArray  type="Float64"  NumberOfComponents="3"  format="ascii">0 1.5 0  0 0 0  0.06190941752361886 0 0  0.06190941752361886 0.02304324263930277 0  0.07687367483109155 0.06663263502519032 0  0.1051805799723963 0.1030013474942385 0  0.1437626405485843 0.128208265731708 0  0.1884388916338735 0.1395218290209338 0  0.2343679681997119 0.1357160372315063 0  0.2765727421371398 0.117203306956754 0  0.3104796713154951 0.0859897797765535 0  0.3324144138380889 0.04545792568865569 0  0.34 0 0  0.4722134970410927 0 0  0.4722134970410927 0.02388743731615415 0  0.4894717723551502 0.0684361811740563 0  0.5216574972706967 0.1037422395464312 0  0.5644238112906292 0.1250373336124665 0  0.6119948867302293 0.1294454429183545 0  0.6579459862509499 0.1163712278761581 0  0.6960711592386857 0.08758043367405244 0  0.7212213898225662 0.04696141660432988 0  0.73 0 0  0.85 0 0  0.857341522555727 0.04635254915624212 0  0.8786474508437579 0.08816778784387098 0  0.9118322121561291 0.1213525491562421 0  0.9536474508437579 0.142658477444273 0  1 0.15 0  1.046352549156242 0.142658477444273 0  1.088167787843871 0.1213525491562421 0  1.121352549156242 0.08816778784387097 0  1.142658477444273 0.04635254915624211 0  1.15 0 0  1.461909417523619 0 0  1.461909417523619 0.02304324263930277 0  1.476873674831092 0.06663263502519032 0  1.505180579972396 0.1030013474942385 0  1.543762640548584 0.128208265731708 0  1.588438891633874 0.1395218290209338 0  1.634367968199712 0.1357160372315063 0  1.67657274213714 0.117203306956754 0  1.710479671315495 0.0859897797765535 0  1.732414413838089 0.04545792568865569 0  1.74 0 0  1.78 0 0  1.789134456098646 0.04592201188381079 0  1.815147186257614 0.08485281374238571 0  1.854077988116189 0.1108655439013544 0  1.9 0.12 0  1.945922011883811 0.1108655439013544 0  1.984852813742386 0.08485281374238569 0  2.010865543901355 0.04592201188381077 0  2.02 0 0  2.161909417523619 0 0  2.161909417523619 0.02304324263930277 0  2.176873674831092 0.06663263502519032 0  2.205180579972396 0.1030013474942385 0  2.243762640548584 0.128208265731708 0  2.288438891633873 0.1395218290209338 0  2.334367968199712 0.1357160372315063 0  2.37657274213714 0.117203306956754 0  2.410479671315495 0.0859897797765535 0  2.432414413838089 0.04545792568865569 0  2.44 0 0  2.472213497041093 0 0  2.472213497041093 0.02388743731615415 0  2.48947177235515 0.0684361811740563 0  2.521657497270697 0.1037422395464312 0  2.564423811290629 0.1250373336124665 0  2.611994886730229 0.1294454429183545 0  2.65794598625095 0.1163712278761581 0  2.696071159238686 0.08758043367405244 0  2.721221389822567 0.04696141660432988 0  2.73 0 0  3 0 0  3 1.5 0  0 0.75 0  3 0.75 0  1.5 1.5 0  0 0.375 0  0 0.1875 0  0 0.09375 0  0.75 1.5 0  2.25 1.5 0  1.137279452465634 0.8667483509386543 0  2.055384907633385 0.8149748422668953 0  0.5545701656450307 0.9454298343549693 0  2.545804583542266 1.045804583542266 0  2.462951104370831 0.5854482317237805 0  1.6063536999151 1.018574336065804 0  0.7683179692414909 0.5511078775270282 0  1.647896012796697 0.5780189144999826 0  1.875 1.5 0  0.3683226130580748 0.5893782185394094 0  0.375 1.5 0  0 1.125 0  3 0.375 0  1.125 1.5 0  3 1.125 0  2.625 1.5 0  1.247216233241016 0.4851891764902285 0  0.8779404074027722 1.143194262378568 0  1.992337703792022 0.4642129848858538 0  2.200035536160075 1.144037289792772 0  1.3125 1.206118267007311 0  1.882280687299076 1.18026905614258 0  0.8375010042452264 0.8437030129736524 0  0.2703628106324028 0.8673582108832857 0  0.336944444033578 1.181320038574892 0  1.424720841531434 0.7792108746582741 0  2.763716218670896 0.5625 0  0.6112325230261646 1.216037756380734 0  2.429292395855053 1.293345775631689 0  2.798691155259055 0.9375 0  2.340750225085827 0.8450755885956063 0  2.74506315455788 1.24506315455788 0  0.4115012634770826 0.3359864655288552 0  1.6875 1.5 0  1.553212834656815 1.259295117559057 0  1.783849920010049 0.8130750647527071 0  2.590242300399914 0.800172794523538 0  2.206538789959823 0.6067588023913982 0  1.022769083327432 0.627137676743421 0  2.0625 1.5 0  2.566013274303806 0.3667751817948443 0  2.317230353528816 0.3853650267397287 0  0.9546600707351991 0.3912757388497677 0  1.76490060939521 0.3540000691256479 0  1.398169292756645 0.3089248951275104 0  0.1875 1.5 0  0.6961815191548208 0.3380429757712475 0  0.6390751493076395 0.7361434669345621 0  1.385952842918209 0.9972233609662619 0  1.082019261833385 1.265823315390121 0  2.784258672215756 0.3048233224522298 0  0 0.5625 0  0.2130557952202133 0.4325455696870932 0  2.110276358430479 0.2903936515686117 0  0 1.3125 0  0.5618175915722093 0.5022778936897083 0  1.438605690073396 0.5702366817214194 0  1.851778102902867 0.6169409446553686 0  0.9375 1.5 0  1.918499765346388 0.9737703250858507 0  1.066617221574711 1.060327143126178 0  0.17830064634795 0.65625 0  1.139464543633635 0.3182162642668528 0  1.214887260891528 0.6824917486258804 0  0.4470960700565646 0.7803305254813445 0  2.056073894593081 1.292965518236122 0  0.7800417460951754 1.309431349558015 0  0.7102942521579887 1.054059105222724 0  2.772203778896419 0.7508393899039921 0  3 0.9375 0  2.4375 1.5 0  0.5625 1.5 0  3 0.5625 0  1.3125 1.5 0  0 0.9375 0  3 1.3125 0  2.8125 1.5 0  3 0.1875 0  1.74009613212014 1.312845810865967 0  0.1858279553328271 1.04932632064409 0  1.582414108002925 0.3243096672004901 0  0.4576542986122824 1.328517530191622 0  1.30595470876181 0 0  0.1616828829631953 1.229471150973137 0  1.600689448835705 0.8342777580615786 0  2.184954406689295 0.9543424310663166 0  2.356848459734244 1.033731425282726 0  2.249618867339344 1.318565528322325 0  2.031012140730151 0.6383085966483963 0  1.264473591492607 0.1926369230867345 0  1.93294708275428 0.2969945700235964 0  1.406271966518558 1.353045118606616 0  0.2855042944080262 1.351202341158466 0  2.163692386827529 0.4469681835123645 0  2.058709899218631 1.05982604745508 0  1.21875 1.361760465218127 0  1.232585115983139 1.060656719142284 0  1.682328919476849 1.161572426192166 0  0.4864612871934715 1.100927295036068 0  2.842393003195402 0.1547034389615206 0  1.901710724058898 1.340659870484523 0  2.578488906869203 1.212378831230944 0  0.346730023619794 1.013455011579226 0  1.758789788261688 0.970834021568154 0  0.9209577900333827 0.984909924281538 0  2.461973640748163 0.2490632223012221 0  2.833434714842781 1.102015011431888 0  1.485476187845101 1.118115752354218 0  0.7869575052851041 0.2127716822913992 0  1.091585464669657 0.4673676525872368 0  0.9308375558444295 1.286291202675726 0  2.609275627299536 0.5207885309723005 0  2.859418780372727 0.4404724026784034 0  0.1368795735450182 0.2913992261536034 0  0.5088670694303536 0.6431238265444117 0  0.9924988599062848 0.7887715626383616 0  0.8674753477047706 0.6821390867986818 0  0.6993572585883594 0.9038049302516018 0  1.53924450853783 0.6818717864694561 0  1.27954362181495 0.818196911265721 0  2.885754890315292 0.65625 0  0.1199579452929171 0.84375 0  0.3101130847613819 0.7251157056441525 0  2.683488575489726 1.10528265125029 0  2.637912450120847 1.350340704724588 0  0.65625 1.387568746661148 0  2.204969505432462 0.7645924845263576 0  2.34230217156612 0.6870332922078795 0  2.458336421316689 0.930056573232228 0  1.547170662421109 0.4687109428674099 0  0.55426355401875 0.2785752421136156 0  1.927690911684502 0.7425770788416013 0  2.650983472818039 0.6639703826486528 0  0.2807744135836687 0.2731407085328489 0  2.697063502273202 0.4130460425434029 0  1.768721210125562 0.4985606178023466 0  1.59375 1.394491048145999 0  1.03125 1.39617417476255 0  2.649124789533757 0.9376608889715211 0  2.899345577629528 0.84375 0  2.448792339301353 1.151333513094988 0  2.455516477512143 0.7671738041202795 0  0.1479512725554237 1.367277900867101 0  1.733007556765436 0.6856365299097277 0  2.865 0 0  0.407900401917371 0.1920322062602331 0  1.482893533441057 0.9020086108979886 0  2.902194538181383 1.21875 0  2.860324471164851 1.360324471164851 0  0.9128790560808855 0.5311054613533476 0  0.7396036279203969 1.183264973390871 0  1.379392725427689 0.4456149894503371 0  0.8305263666170877 0.339868595109382 0  2.352639297837627 1.399880277695907 0  2.15625 1.5 0  2.32277762299786 1.203473773731512 0  1.818471673600783 0.235727380341035 0  1.269129800285538 0.3222823294390822 0  2.329228807632851 0.5297324129610972 0  0.430777275012463 0.469645907614299 0  1.390502090335328 0.1630587681988043 0  1.149408636841162 1.157447166816889 0  1.687853147042319 0.2519031106491252 0  0.3941048876243997 0.8956837842542459 0  1.877835046604575 0.410724628626283 0  1.348230251479045 0.6691802479050837 0  2.336954765206726 0.2613063289913201 0  2.514033953321691 1.393470229958569 0  0 0.46875 0  0.1287800079303892 0.5340043503292357 0  2.441328451749267 0.3721441168812449 0  0.9333932382689634 0.2670516659043625 0  1.13959172768211 0.5827503401695603 0  0.8703665929291606 1.395134656069543 0  1.240468926246127 0.9364063612525604 0  1.433475419570003 1.229904687600933 0  1.020534477629395 0.9101139083191684 0  1.108777781305164 0.7462713331880694 0  0.6468125623079457 0.6038935958199032 0  1.665312060212151 0.428962863572448 0  0.2512528931669099 0.5500044694745148 0  2.66971919386773 0.2450375495263612 0  2.901855502368762 0.2640467328343441 0  2.063534245742155 0.9373123558679215 0  2.031795413587333 0.1972457754676831 0  1.836924180675512 1.065887991891963 0  1.001601941364679 1.16852535211421 0  0.8051266927803291 0.9581030042697194 0  0.7620228346493961 0.7461373576581022 0  3 1.03125 0  2.084817260746984 1.176705869274554 0  2.085981885570153 0.5347538843754811 0  1.496744890324478 0.239335226969819 0  1.894594308711337 0.8570406362709689 0  1.78125 1.5 0  2.109375 1.394928085212741 0  2.71875 1.5 0  0.4943575340553394 1.217544978302146 0  0.5937185858435849 1.055241883498284 0  2.227680725187669 0.3075299344665331 0  0.5158109084499103 0.3891628929402524 0  1.96875 1.5 0  0.6036564600183
[...]
<PointData  Tensors="f_1898"> 
<DataArray  type="Float64"  Name="f_1898"  NumberOfComponents="9" format="ascii">-6.5504015240517353e+00 -4.9111394631745222e+00 0.0000000000000000e+00 -4.9111394631745222e+00 -1.4978739339196673e+01 0.0000000000000000e+00 0.0000000000000000e+00 0.0000000000000000e+00 0.0000000000000000e+00  3.2240583567986747e+01 3.4534875448043056e+00 0.0000000000000000e+00 3.4534875448043056e+00 2.4577620264186255e+01 0.0000000000000000e+00 0.0000000000000000e+00 0.0000000000000000e+00 0.0000000000000000e+00  1.9962329207664705e+01 3.5060850683957785e+00 0.0000000000000000e+00 3.5060850683957785e+00 2.7991217814342264e+01 0.0000000000000000e+00 0.0000000000000000e+00 0.0000000000000000e+00 0.0000000000000000e+00  4.9584849314466609e+01 1.9007215363776321e+01 0.0000000000000000e+00 1.9007215363776321e+01 6.8934806453622794e+00 0.0000000000000000e+00 0.0000000000000000e+00 0.0000000000000000e+00 0.0000000000000000e+00  7.4270963738279690e+01 2.3365684897494031e+01 0.0000000000000000e+00 2.3365684897494031e+01 -4.2366363862745821e+01 0.0000000000000000e+00 0.0000000000000000e+00 0.0000000000000000e+00 0.0000000000000000e+00  1.4321141599830958e+02 -2.1709561820688862e+01 0.0000000000000000e+00 -2.1709561820688862e+01 -9.1739199551704630e+01 0.0000000000000000e+00 0.0000000000000000e+00 0.0000000000000000e+00 0.0000000000000000e+00  1.0409810802112256e+02 -3.2171794321406466e+01 0.0000000000000000e+00 -3.2171794321406466e+01 -4.3634074724553834e+01 0.0000000000000000e+00 0.0000000000000000e+00 0.0000000000000000e+00 0.0000000000000000e+00  4.4798435924198365e+01 7.6723661908010172e+01 0.0000000000000000e+00 7.6723661908010172e+01 1.8179604007488486e+01 0.0000000000000000e+00 0.0000000000000000e+00 0.0000000000000000e+00 0.0000000000000000e+00  4.6900185299046449e+01 9.9485192797650015e+01 0.0000000000000000e+00 9.9485192797650015e+01 -7.5438854707170968e+00 0.0000000000000000e+00 0.0000000000000000e+00 0.0000000000000000e+00 0.0000000000000000e+00  1.7086032761366493e+01 1.3049976427485777e+01 0.0000000000000000e+00 1.3049976427485777e+01 5.4034222661711894e+01 0.0000000000000000e+00 0.0000000000000000e+00 0.0000000000000000e+00 0.0000000000000000e+00  -1.7016385125822561e+02 1.1224360860650688e+02 0.0000000000000000e+00 1.1224360860650688e+02 2.0460376756140570e+02 0.0000000000000000e+00 0.0000000000000000e+00 0.0000000000000000e+00 0.0000000000000000e+00  -1.6483387776129987e+02 1.6748902849992015e+02 0.0000000000000000e+00 1.6748902849992015e+02 1.8811344741724909e+02 0.0000000000000000e+00 0.0000000000000000e+00 0.0000000000000000e+00 0.0000000000000000e+00  2.1445499829405517e+01 1.1120739228318055e+01 0.0000000000000000e+00 1.1120739228318055e+01 5.6664692418472647e+01 0.0000000000000000e+00 0.0000000000000000e+00 0.0000000000000000e+00 0.0000000000000000e+00  2.5429366479513263e+01 -2.5895409502695066e+00 0.0000000000000000e+00 -2.5895409502695066e+00 1.2531631694195555e+01 0.0000000000000000e+00 0.0000000000000000e+00 0.0000000000000000e+00 0.0000000000000000e+00  4.3114991558393569e+01 1.5093392324606361e+01 0.0000000000000000e+00 1.5093392324606361e+01 4.5053910706021725e+00 0.0000000000000000e+00 0.0000000000000000e+00 0.0000000000000000e+00 0.0000000000000000e+00  4.1697177707712022e+01 2.6678914039941969e+01 0.0000000000000000e+00 2.6678914039941969e+01 1.4497065880915367e+00 0.0000000000000000e+00 0.0000000000000000e+00 0.0000000000000000e+00 0.0000000000000000e+00  -9.4340072360492726e+01 4.6159072061870823e+01 0.0000000000000000e+00 4.6159072061870823e+01 1.5559772957406653e+02 0.0000000000000000e+00 0.0000000000000000e+00 0.0000000000000000e+00 0.0000000000000000e+00  -8.9512733659318329e+01 1.0255977525807828e+02 0.0000000000000000e+00 1.0255977525807828e+02 1.3811759425243341e+02 0.0000000000000000e+00 0.0000000000000000e+00 0.0000000000000000e+00 0.0000000000000000e+00  2.0647083748087702e+01 -3.3396931925652882e+00 0.0000000000000000e+00 -3.3396931925652882e+00 7.5197006005686262e+01 0.0000000000000000e+00 0.0000000000000000e+00 0.0000000000000000e+00 0.0000000000000000e+00  -1.0788581492214423e+02 -9.8509827118098343e+01 0.0000000000000000e+00 -9.8509827118098343e+01 1.7730427590740109e+02 0.0000000000000000e+00 0.0000000000000000e+00 0.0000000000000000e+00 0.0000000000000000e+00  -1.4953137957617191e+01 -3.0321602702020986e+01 0.0000000000000000e+00 -3.0321602702020986e+01 6.2300981689203972e+01 0.0000000000000000e+00 0.0000000000000000e+00 0.0000000000000000e+00 0.0000000000000000e+00  4.4207170639548011e+01 -2.5008908495952475e+01 0.0000000000000000e+00 -2.5008908495952475e+01 -1.4913475496856503e+00 0.0000000000000000e+00 0.0000000000000000e+00 0.0000000000000000e+00 0.0000000000000000e+00  2.7019309673519164e+01 6.4367584015507235e+00 0.0000000000000000e+00 6.4367584015507235e+00 1.5807071928741262e+01 0.0000000000000000e+00 0.0000000000000000e+00 0.0000000000000000e+00 0.0000000000000000e+00  -2.2182083073673273e+00 -3.5129527206632069e+01 0.0000000000000000e+00 -3.5129527206632069e+01 8.8079269435503676e+01 0.0000000000000000e+00 0.0000000000000000e+00 0.0000000000000000e+00 0.0000000000000000e+00  -9.7824059474030747e+01 -1.3762317907810731e+02 0.0000000000000000e+00 -1.3762317907810731e+02 1.3516109802968370e+02 0.0000000000000000e+00 0.0000000000000000e+00 0.0000000000000000e+00 0.0000000000000000e+00  -2.2149171451225402e+02 -8.8749019034818843e+01 0.0000000000000000e+00 -8.8749019034818843e+01 2.3020772346612881e+02 0.0000000000000000e+00 0.0000000000000000e+00 0.0000000000000000e+00 0.0000000000000000e+00  -8.5982064543213994e+01 -3.9136395169958647e+01 0.0000000000000000e+00 -3.9136395169958647e+01 1.4587520860204009e+02 0.0000000000000000e+00 0.0000000000000000e+00 0.0000000000000000e+00 0.0000000000000000e+00  8.7830736764301722e+00 -5.6952941841134844e+01 0.0000000000000000e+00 -5.6952941841134844e+01 3.2676972442329927e+01 0.0000000000000000e+00 0.0000000000000000e+00 0.0000000000000000e+00 0.0000000000000000e+00  8.2130816821227057e+00 -9.7417336198407469e+01 0.0000000000000000e+00 -9.7417336198407469e+01 8.8006730164474742e+00 0.0000000000000000e+00 0.0000000000000000e+00 0.0000000000000000e+00 0.0000000000000000e+00  7.1984301756647739e+01 2.5172918253528504e+01 0.0000000000000000e+00 2.5172918253528504e+01 -2.8484158476819427e+01 0.0000000000000000e+00 0.0000000000000000e+00 0.0000000000000000e+00 0.0000000000000000e+00  1.4482095512528264e+02 6.7708831306461249e+01 0.0000000000000000e+00 6.7708831306461249e+01 -1.1135086599451854e+02 0.0000000000000000e+00 0.0000000000000000e+00 0.0000000000000000e+00 0.0000000000000000e+00  7.4062267167605981e+01 -4.8515755089544186e+00 0.0000000000000000e+00 -4.8515755089544186e+00 -3.2065546634196018e+01 0.0000000000000000e+00 0.0000000000000000e+00 0.0000000000000000e+00 0.0000000000000000e+00  2.2851630536241526e+01 -5.3172504588851375e+00 0.0000000000000000e+00 -5.3172504588851375e+00 1.4967940762771692e+01 0.0000000000000000e+00 0.0000000000000000e+00 0.0000000000000000e+00 0.0000000000000000e+00  1.9347348518256389e+01 -1.9909911392684045e+00 0.0000000000000000e+00 -1.9909911392684045e+00 1.1233913134583249e+01 0.0000000000000000e+00 0.0000000000000000e+00 0.0000000000000000e+00 0.0000000000000000e+00  1.0019035956848633e+01 1.8720128590469254e+00 0.0000000000000000e+00 1.8720128590469254e+00 3.7445504093567855e+01 0.0000000000000000e+00 0.0000000000000000e+00 0.0000000000000000e+00 0.0000000000000000e+00  -7.9212037089170934e+01 -4.9936415764314127e+01 0.0000000000000000e+00 -4.9936415764314127e+01 1.2106397577040359e+02 0.0000000000000000e+00 0.0000000000000000e+00 0.0000000000000000e+00 0.0000000000000000e+00  -1.2660077172045426e+02 -1.3859489096243598e+02 0.0000000000000000e+00 -1.3859489096243598e+02 1.4018041519613061e+02 0.0000000000000000e+00 0.0000000000000000e+00 0.0000000000000000e+00 0.0000000000000000e+00  -1.0658615633515947e+02 -6.5031668333467564e+01 0.0000000000000000e+00 -6.5031668333467564e+01 1.3867645251414723e+02 0.0000000000000000e+00 0.0000000000000000e+00 0.0000000000000000e+00 0.0000000000000000e+00  1.4038784272377672e+01 -3.7786031661016132e+01 0.0000000000000000e+00 -3.7786031661016132e+01 1.6588334561829647e+01 0.0000000000000000e+00 0.0000000000000000e+00 0.0000000000000000e+00 0.0000000000000000e+00  -5.6744228951384201e-01 -1.2566934186467169e+02 0.0000000000000000e+00 -1.2566934186467169e+02 4.2402852314177059e-01 0.0000000000000000e+00 0.0000000000000000e+00 0.0000000000000000e+00 0.0000000000000000e+00  8.0477086949099615e+01 1.9281114751301516e+00 0.0000000000000000e+00 1.9281114751301516e+00 -3.6829215694189323e+01 0.0000000000000000e+00 0.0000000000000000e+00 0.0000000000000000e+00 0.0000000000000000e+00  1.7586146296755470e+02 7.9700747628770699e+01 0.0000000000000000e+00 7.9700747628770699e+01 -1.3881200615132886e+02 0.0000000000000000e+00 0.0000000000000000e+00 0.0000000000000000e+00 0.0000000000000000e+00  1.3452813262354348e+02 4.4736631309518202e+00 0.0000000000000000e+00 4.4736631309518202e+00 -9.0594801133081461e+01 0.0000000000000000e+00 0.0000000000000000e+00 0.0000000000000000e+00 0.0000000000000000e+00  3.4171547696971643e+01 -2.4782390878683298e+01 0.0000000000000000e+00 -2.4782390878683298e+01 -2.1716931151620984e+00 0.0000000000000000e+00 0.0000000000000000e+00 0.0000000000000000e+00 0.0000000000000000e+00  2.2499267258577191e+01 -3.2462797487811437e+00 0.0000000000000000e+00 -3.2462797487811419e+00 9.1995110987174353e+00 0.0000000000000000e+00 0.0000000000000000e+00 0.0000000000000000e+00 0.0000000000000000e+00  9.9452692474373965e+00 -3.1610921311176581e+00 0.0000000000000000e+00 -3.1610921311176567e+00 4.0997809861873527e+01 0.0000000000000000e+00 0.0000000000000000e+00 0.0000000000000000e+00 0.0000000000000000e+00  -2.6588943031396553e+01 -2.0922494664309696e+01 0.0000000000000000e+00 -2.0922494664309689e+01 6.2229608508678375e+01 0.0000000000000000e+00 0.0000000000000000e+00 0.0000000000000000e+00 0.0000000000000000e+00  -5.7744205879752407e+01 -3.2841017867930866e+01 0.0000000000000000e+00 -3.2841017867930866e+01 9.4018987881790281e+01 0.0000000000000000e+00 0.0000000000000000e+00 0.0000000000000000e+00 0.0000000000000000e+00  2.7435301614799450e+01 -8.7424769783408266e+01 0.0000000000000000e+00 -8.7424769783408266e+01 2.3933551277675576e+01 0.0000000000000000e+00 0.0000000000000000e+00 0.0000000000000000e+00 0.0000000000000000e+00  3.7787188150820628e+00 -1.4336073644371788e+02 0.0000000000000000e+00 -1.4336073644371788e+02 -1.2277646872513808e+01 0.0000000000000000e+00 0.0000000000000000e+00 0.0000000000000000e+00 0.0000000000000000e+00  1.1382282558362374e+02 2.2651284342185726e+01 0.0000000000000000e+00 2.2651284342185726e+01 -8.2474439771908436e+01 0.0000000000000000e+00 0.0000000000000000e+00 0.0000000000000000e+00 0.0000000000000000e+00  1.7765712982195740e+02 3.9085741035151386e+01 0.0000000000000000e+00 3.9085741035151386e+01 -1.4411991771196406e+02 0.0000000000000000e+00 0.0000000000000000e+00 0.0000000000000000e+00 0.0000000000000000e+00  8.5138379952120999e+01 -4.6578612668259133e+01 0.0000000000000000e+00 -4.6578612668259133e+01 -5.4962709857635382e+01 0.0000000000000000e+00 0.0000000000000000e+00 0.0000000000000000e+00 0.0000000000000000e+00  8.3600410029784644e+00 -7.9740421572034972e+00 0.0000000000000000e+00 -7.9740421572034972e+00 1.4184744631256978e+01 0.0000000000000000e+00 0.0000000000000000e+00 0.0000000000000000e+00 0.0000000000000000e+00  2.5067055401965796e+01 -4.6035600758116084e+00 0.0000000000000000e+00 -4.6035600758116084e+00 5.5288694872831501e+00 0.0000000000000000e+00 0.0000000000000000e+00 0.0000000000000000e+00 0.0000000000000000e+00  3.4635584904259488e+01 2.0681508528334096e+01 0.0000000000000000e+00 2.0681508528334096e+01 -1.6060150493266629e+00 0.0000000000000000e+00 0.0000000000000000e+00 0.0000000000000000e+00 0.0000000000000000e+00  6.1124109036430049e+01 2.4621806695346613e+01 0.0000000000000000e+00 2.4621806695346613e+01 -3.9901603332181423e+01 0.0000000000000000e+00 0.0000000000000000e+00 0.0000000000000000e+00 0.0000000000000000e+00  1.4188263615436625e+02 -4.6092303091586722e+01 0.0000000000000000e+00 -4.6092303091586722e+01 -1.2832528342915006e+02 0.0000000000000000e+00 0.0000000000000000e+00 0.0000000000000000e+00 0.0000000000000000e+00  1.2886551849009666e+02 -5.4053603667492425e+01 0.0000000000000000e+00 -5.4053603667492425e+01 -9.9954405157847916e+01 0.0000000000000000e+00 0.0000000000000000e+00 0.0000000000000000e+00 0.0000000000000000e+00  1.7149646183965917e+01 6.8201961159065576e+01 0.0000000000000000e+00 6.8201961159065576e+01 3.0499316609888654e+00 0.0000000000000000e+00 0.0000000000000000e+00 0.0000000000000000e+00 0.0000000000000000e+00  8.3235511506372202e+00 3.6552386334881980e+01 0.0000000000000000e+00 3.6552386334881980e+01 2.7781107389637661e+01 0.0000000000000000e+00 0.0000000000000000e+00 0.0000000000000000e+00 0.0000000000000000e+00  -7.9363217174742061e+01 -9.2374421974041621e+00 0.0000000000000000e+00 -9.2374421974041621e+00 1.1805217823626529e+02 0.0000000000000000e+00 0.0000000000000000e+00 0.0000000000000000e+00 0.0000000000000000e+00  -1.6688310579981632e+02 5.0664736413101508e+01 0.0000000000000000e+00 5.0664736413101508e+01 1.9384643548690914e+02 0.0000000000000000e+00 0.0000000000000000e+00 0.0000000000000000e+00 0.0000000000000000e+00  -2.0878758604620764e+01 3.5183709323107244e+01 0.0000000000000000e+00 3.5183709323107244e+01 6.5001297472370368e+01 0.0000000000000000e+00 0.0000000000000000e+00 0.0000000000000000e+00 0.0000000000000000e+00  7.0028719186223771e+00 -3.2619123970375976e+00 0.0000000000000000e+00 -3.2619123970375976e+00 1.9610142724898736e+01 0.0000000000000000e+00 0.0000000000000000e+00 0.0000000000000000e+00 0.0000000000000000e+00  9.6608312810985151e+00 2.2344621660650996e+00 0.0000000000000000e+00 2.2344621660650996e+00 1.3574402824872758e+01 0.0000000000000000e+00 0.0000000000000000e+00 0.0000000000000000e+00 0.0000000000000000e+00  2.2483794531828249e+01 9.1525023923821784e+00 0.0000000000000000e+00 9.1525023923821784e+00 3.0328147802594008e+00 0.0000000000000000e+00 0.0000000000000000e+00 0.0000000000000000e+00 0.0000000000000000e+00  6.7722131225983944e+01 1.8863231161274452e+00 0.0000000000000000e+00 1.8863231161274452e+00 -5.2126219439823636e+01 0.0000000000000000e+00 0.0000000000000000e+00 0.0000000000000000e+00 0.0000000000000000e+00  1.3629419011449875e+02 -7.1022050452092174e+01 0.0000000000000000e+00 -7.1022050452092174e+01 -1.3927610779455841e+02 0.0000000000000000e+00 0.0000000000000000e+00 0.0000000000000000e+00 0.0000000000000000e+00  4.4354671919285252e+01 -1.9851797593585445e+01 0.0000000000000000e+00 -1.9851797593585445e+01 -3.8266986116563523e+01 0.0000000000000000e+00 0.0000000000000000e+00 0.0000000000000000e+00 0.0000000000000000e+00  1.3716308349915774e+01 -1.6882902855726996e+01 0.0000000000000000e+00 -1.6882902855726996e+01 2.0289630628938093e+00 0.0000000000000000e+00 0.0000000000000000e+00 0.0000000000000000e+00 0.0000000000000000e+00  -1.0421753008791087e+02 -3.5234383823727107e+01 0.0000000000000000e+00 -3.5234383823727107e+01 1.6462191917372721e+02 0.0000000000000000e+00 0.0000000000000000e+00 0.0000000000000000e+00 0.0000000000000000e+00  -3.1146145892551749e+02 6.4211946179270242e+01 0.0000000000000000e+00 6.4211946179270242e+01 2.9559403891739061e+02 0.0000000000000000e+00 0.0000000000000000e+00 0.0000000000000000e+00 0.0000000000000000e+00  -1.4329753673360298e+02 1.6633477492849360e+02 0.0000000000000000e+00 1.6633477492849360e+02 1.6546231962529535e+02 0.0000000000000000e+00 0.0000000000000000e+00 0.0000000000000000e+00 0.0000000000000000e+00  1.2716597450906624e+01 -2.2433142868939502e+00 0.0000000000000000e+00 -2.2433142868939502e+00 1.5275720654740359e+01 0.0000000000000000e+00 0.0000000000000000e+00 0.0000000000000000e+00 0.0000000000000000e+00  -1.8319660064462863e+02 1.1478206234482440e+02 0.0000000000000000e+00 1.1478206234482440e+02 5.7045030433844097e+01 0.0000000000000000e+00 0.0000000000000000e+00 0.0000000000000000e+00 0.0000000000000000e+00  4.0816991986267828e+02 2.7347836732917142e+02 0.0000000000000000e+00 2.7347836732917142e+02 9.4591880591453716e+01 0.0000000000000000e+00 0.0000000000000000e+00 0.0000000000000000e+00 0.0000000000000000e+00  8.2346327747242682e+00 1.5241505009727260e+02 0.0000000000000000e+00 1.5241505009727260e+02 6.8845028010826628e+00 0.0000000000000000e+00 0.0000000000000000e+00 0.0000000000000000e+00 0.0000000000000000e+00  1.8810172696403658e+01 -2.7859928968899220e+02 0.0000000000000000e+00 -2.7859928968899220e+02 1.3556874385511756e+01 0.0000000000000000e+00 0.0000000000000000e+00 0.0000000000000000e+00 0.0000000000000000e+00  1.6377906427412505e+01 1.6409621488967566e+01 0.0000000000000000e+00 1.6409621488967566e+01 -2.6634770367209967e+01 0.0000000000000000e+00 0.0000000000000000e+00 0.0000000000000000e+00 0.0000000000000000e+00  1.7079608209323919e+01 1.6212240636251397e+02 0.0000000000000000e+00 1.6212240636251397e+02 1.7081444715660950e+01 0.0000000000000000e+00 0.0000000000000000e+00 0.0000000000000000e+00 0.0000000000000000e+00  3.6512420052685606e+01 1.7212979218312486e+02 0.0000000000000000e+00 1.7212979218312486e+02 -1.6309665178371588e+00 0.0000000000000000e+00 0.0000000000000000e+00 0.0000000000000000e+00 0.0000000000000000e+00  6.4588588514018381e+00 9.5444845502018353e+01 0.0000000000000000e+00 9.5444845502018353e+01 3.9888479857605226e+01 0.0000000000000000e+00 0.0000000000000000e+00 0.0000000000000000e+00 0.0000000000000000e+00  -2.4919707514592261e+01 2.1826235900580354e+01 0.0000000000000000e+00 2.1826235900580354e+01 -6.1762046871285303e+00 0.0000000000000000e+00 0.0000000000000000e+00 0.0000000000000000e+00 0.0000000000000000e+00  -1.2659696854759627e+01 -1.5009515581118169e+01 0.0000000000000000e+00 -1.5009515581118169e+01 -2.9917217966402760e+01 0.0000000000000000e+00 0.0000000000000000e+00 0.0000000000000000e+00 0.0000000000000000e+00  1.0283052887671327e+00 4.7843743728903554e+01 0.0000000000000000e+00 4.7843743728903554e+01 2.9247854493927834e+00 0.0000000000000000e+00 0.0000000000000000e+00 0.0000000000000000e+00 0.0000000000000000e+00  1.6016754544799905e+00 4.1922423439294946e+01 0.0000000000000000e+00 4.1922423439294946e+01 -6.2754564362237286e-01 0.0000000000000000e+00 0.0000000000000000e+00 0.0000000000000000e+00 0.0000000000000000e+00  7.4682706602113091e-01 3.9724495567271681e+01 0.0000000000000000e+00 3.9724495567271681e+01 2.7745862094606850e+00 0.0000000000000000e+00 0.0000000000000000e+00 0.0000000000000000e+00 0.0000000000000000e+00  -3.5455201990525946e+00 -1.4653338375446344e+01 0.0000000000000000e+00 -1.4653338375446344e+01 -4.9480775675152522e+00 0.0000000000000000e+00 0.0000000000000000e+00 0.0000000000000000e+00 0.0000000000000000e+00  -3.2768147759692479e+00 -4.6553398608022640e+01 0.0000000000000000e+00 -4.6553398608022640e+01 9.7798743962135983e+00 0.0000000000000000e+00 0.0000000000000000e+00 0.0000000000000000e+00 0.0000000000000000e+00  -2.3084633339628140e+00 -3.8627364652868586e+01 0.0000000000000000e+00 -3.8627364652868586e+01 -3.8977154115556929e+00 0.0000000000000000e+00 0.0000000000000000e+00 0.0000000000000000e+00 0.0000000000000000e+00  1.0945778692154496e+01 1.6957649046224830e+01 0.0000000000000000e+00 1.6957649046224830e+01 1.0883009653308036e+01 0.0000000000000000e+00 0.0000000000000000e+00 0.0000000000000000e+00 0.0000000000000000e+00  6.8238660569425686e+00 -2.0915890833299864e+00 0.0000000000000000e+00 -2.0915890833299868e+00 7.4180464078517216e+00 0.0000000000000000e+00 0.0000000000000000e+00 0.0000000000000000e+00 0.0000000000000000e+00  -4.1658498648396737e+01 -1.4636327292775789e+02 0.0000000000000000e+00 -1.4636327292775789e+02 -6.6886106051177343e+00 0.0000000000000000e+00 0.0000000000000000e+00 0.0000000000000000e+00 0.0000000000000000e+00  1.2289552698129411e+01 -4.9331278685784994e+01 0.0000000000000000e+00 -4.9331278685784994e+01 1.0968808390591413e+01 0.0000000000000000e+00 0.0000000000000000e+00 0.0000000000000