<?xml version="1.0"?>
<VTKFile type="UnstructuredGrid"  version="0.1"  >
<UnstructuredGrid>
<Piece  NumberOfPoints="4978" NumberOfCells="9630">
<Points>
<DataArray  type="Float64"  NumberOfComponents="3"  format="ascii">0 1.5 0  0 0 0  0.06190941752361886 0 0  0.06190941752361886 0.02304324263930277 0  0.07687367483109155 0.06663263502519032 0  0.1051805799723963 0.1030013474942385 0  0.1437626405485843 0.128208265731708 0  0.1884388916338735 0.1395218290209338 0  0.2343679681997119 0.1357160372315063 0  0.2765727421371398 0.117203306956754 0  0.3104796713154951 0.0859897797765535 0  0.3324144138380889 0.04545792568865569 0  0.34 0 0  0.4722134970410927 0 0  0.4722134970410927 0.02388743731615415 0  0.4894717723551502 0.0684361811740563 0  0.5216574972706967 0.1037422395464312 0  0.5644238112906292 0.1250373336124665 0  0.6119948867302293 0.1294454429183545 0  0.6579459862509499 0.1163712278761581 0  0.6960711592386857 0.08758043367405244 0  0.7212213898225662 0.04696141660432988 0  0.73 0 0  0.85 0 0  0.857341522555727 0.04635254915624212 0  0.8786474508437579 0.08816778784387098 0  0.9118322121561291 0.1213525491562421 0  0.9536474508437579 0.142658477444273 0  1 0.15 0  1.046352549156242 0.142658477444273 0  1.088167787843871 0.1213525491562421 0  1.121352549156242 0.08816778784387097 0  1.142658477444273 0.04635254915624211 0  1.15 0 0  1.461909417523619 0 0  1.461909417523619 0.02304324263930277 0  1.476873674831092 0.06663263502519032 0  1.505180579972396 0.1030013474942385 0  1.543762640548584 0.128208265731708 0  1.588438891633874 0.1395218290209338 0  1.634367968199712 0.1357160372315063 0  1.67657274213714 0.117203306956754 0  1.710479671315495 0.0859897797765535 0  1.732414413838089 0.04545792568865569 0  1.74 0 0  1.78 0 0  1.789134456098646 0.04592201188381079 0  1.815147186257614 0.08485281374238571 0  1.854077988116189 0.1108655439013544 0  1.9 0.12 0  1.945922011883811 0.1108655439013544 0  1.984852813742386 0.08485281374238569 0  2.010865543901355 0.04592201188381077 0  2.02 0 0  2.161909417523619 0 0  2.161909417523619 0.02304324263930277 0  2.176873674831092 0.06663263502519032 0  2.205180579972396 0.1030013474942385 0  2.243762640548584 0.128208265731708 0  2.288438891633873 0.1395218290209338 0  2.334367968199712 0.1357160372315063 0  2.37657274213714 0.117203306956754 0  2.410479671315495 0.0859897797765535 0  2.432414413838089 0.04545792568865569 0  2.44 0 0  2.472213497041093 0 0  2.472213497041093 0.02388743731615415 0  2.48947177235515 0.0684361811740563 0  2.521657497270697 0.1037422395464312 0  2.564423811290629 0.1250373336124665 0  2.611994886730229 0.1294454429183545 0  2.65794598625095 0.1163712278761581 0  2.696071159238686 0.08758043367405244 0  2.721221389822567 0.04696141660432988 0  2.73 0 0  3 0 0  3 1.5 0  0 0.75 0  3 0.75 0  1.5 1.5 0  0 0.375 0  0 0.1875 0  0 0.09375 0  0.75 1.5 0  2.25 1.5 0  1.137279452465634 0.8667483509386543 0  2.055384907633385 0.8149748422668953 0  0.5545701656450307 0.9454298343549693 0  2.545804583542266 1.045804583542266 0  2.462951104370831 0.5854482317237805 0  1.6063536999151 1.018574336065804 0  0.7683179692414909 0.5511078775270282 0  1.647896012796697 0.5780189144999826 0  1.875 1.5 0  0.3683226130580748 0.5893782185394094 0  0.375 1.5 0  0 1.125 0  3 0.375 0  1.125 1.5 0  3 1.125 0  2.625 1.5 0  1.247216233241016 0.4851891764902285 0  0.8779404074027722 1.143194262378568 0  1.992337703792022 0.4642129848858538 0  2.200035536160075 1.144037289792772 0  1.3125 1.206118267007311 0  1.882280687299076 1.18026905614258 0  0.8375010042452264 0.8437030129736524 0  0.2703628106324028 0.8673582108832857 0  0.336944444033578 1.181320038574892 0  1.424720841531434 0.7792108746582741 0  2.763716218670896 0.5625 0  0.6112325230261646 1.216037756380734 0  2.429292395855053 1.293345775631689 0  2.798691155259055 0.9375 0  2.340750225085827 0.8450755885956063 0  2.74506315455788 1.24506315455788 0  0.4115012634770826 0.3359864655288552 0  1.6875 1.5 0  1.553212834656815 1.259295117559057 0  1.783849920010049 0.8130750647527071 0  2.590242300399914 0.800172794523538 0  2.206538789959823 0.6067588023913982 0  1.022769083327432 0.627137676743421 0  2.0625 1.5 0  2.566013274303806 0.3667751817948443 0  2.317230353528816 0.3853650267397287 0  0.9546600707351991 0.3912757388497677 0  1.76490060939521 0.3540000691256479 0  1.398169292756645 0.3089248951275104 0  0.1875 1.5 0  0.6961815191548208 0.3380429757712475 0  0.6390751493076395 0.7361434669345621 0  1.385952842918209 0.9972233609662619 0  1.082019261833385 1.265823315390121 0  2.784258672215756 0.3048233224522298 0  0 0.5625 0  0.2130557952202133 0.4325455696870932 0  2.110276358430479 0.2903936515686117 0  0 1.3125 0  0.5618175915722093 0.5022778936897083 0  1.438605690073396 0.5702366817214194 0  1.851778102902867 0.6169409446553686 0  0.9375 1.5 0  1.918499765346388 0.9737703250858507 0  1.066617221574711 1.060327143126178 0  0.17830064634795 0.65625 0  1.139464543633635 0.3182162642668528 0  1.214887260891528 0.6824917486258804 0  0.4470960700565646 0.7803305254813445 0  2.056073894593081 1.292965518236122 0  0.7800417460951754 1.309431349558015 0  0.7102942521579887 1.054059105222724 0  2.772203778896419 0.7508393899039921 0  3 0.9375 0  2.4375 1.5 0  0.5625 1.5 0  3 0.5625 0  1.3125 1.5 0  0 0.9375 0  3 1.3125 0  2.8125 1.5 0  3 0.1875 0  1.74009613212014 1.312845810865967 0  0.1858279553328271 1.04932632064409 0  1.582414108002925 0.3243096672004901 0  0.4576542986122824 1.328517530191622 0  1.30595470876181 0 0  0.1616828829631953 1.229471150973137 0  1.600689448835705 0.8342777580615786 0  2.184954406689295 0.9543424310663166 0  2.356848459734244 1.033731425282726 0  2.249618867339344 1.318565528322325 0  2.031012140730151 0.6383085966483963 0  1.264473591492607 0.1926369230867345 0  1.93294708275428 0.2969945700235964 0  1.406271966518558 1.353045118606616 0  0.2855042944080262 1.351202341158466 0  2.163692386827529 0.4469681835123645 0  2.058709899218631 1.05982604745508 0  1.21875 1.361760465218127 0  1.232585115983139 1.060656719142284 0  1.682328919476849 1.161572426192166 0  0.4864612871934715 1.100927295036068 0  2.842393003195402 0.1547034389615206 0  1.901710724058898 1.340659870484523 0  2.578488906869203 1.212378831230944 0  0.346730023619794 1.013455011579226 0  1.758789788261688 0.970834021568154 0  0.9209577900333827 0.984909924281538 0  2.461973640748163 0.2490632223012221 0  2.833434714842781 1.102015011431888 0  1.485476187845101 1.118115752354218 0  0.7869575052851041 0.2127716822913992 0  1.091585464669657 0.4673676525872368 0  0.9308375558444295 1.286291202675726 0  2.609275627299536 0.5207885309723005 0  2.859418780372727 0.4404724026784034 0  0.1368795735450182 0.2913992261536034 0  0.5088670694303536 0.6431238265444117 0  0.9924988599062848 0.7887715626383616 0  0.8674753477047706 0.6821390867986818 0  0.6993572585883594 0.9038049302516018 0  1.53924450853783 0.6818717864694561 0  1.27954362181495 0.818196911265721 0  2.885754890315292 0.65625 0  0.1199579452929171 0.84375 0  0.3101130847613819 0.7251157056441525 0  2.683488575489726 1.10528265125029 0  2.637912450120847 1.350340704724588 0  0.65625 1.387568746661148 0  2.204969505432462 0.7645924845263576 0  2.34230217156612 0.6870332922078795 0  2.458336421316689 0.930056573232228 0  1.547170662421109 0.4687109428674099 0  0.55426355401875 0.2785752421136156 0  1.927690911684502 0.7425770788416013 0  2.650983472818039 0.6639703826486528 0  0.2807744135836687 0.2731407085328489 0  2.697063502273202 0.4130460425434029 0  1.768721210125562 0.4985606178023466 0  1.59375 1.394491048145999 0  1.03125 1.39617417476255 0  2.649124789533757 0.9376608889715211 0  2.899345577629528 0.84375 0  2.448792339301353 1.151333513094988 0  2.455516477512143 0.7671738041202795 0  0.1479512725554237 1.367277900867101 0  1.733007556765436 0.6856365299097277 0  2.865 0 0  0.407900401917371 0.1920322062602331 0  1.482893533441057 0.9020086108979886 0  2.902194538181383 1.21875 0  2.860324471164851 1.360324471164851 0  0.9128790560808855 0.5311054613533476 0  0.7396036279203969 1.183264973390871 0  1.379392725427689 0.4456149894503371 0  0.8305263666170877 0.339868595109382 0  2.352639297837627 1.399880277695907 0  2.15625 1.5 0  2.32277762299786 1.203473773731512 0  1.818471673600783 0.235727380341035 0  1.269129800285538 0.3222823294390822 0  2.329228807632851 0.5297324129610972 0  0.430777275012463 0.469645907614299 0  1.390502090335328 0.1630587681988043 0  1.149408636841162 1.157447166816889 0  1.687853147042319 0.2519031106491252 0  0.3941048876243997 0.8956837842542459 0  1.877835046604575 0.410724628626283 0  1.348230251479045 0.6691802479050837 0  2.336954765206726 0.2613063289913201 0  2.514033953321691 1.393470229958569 0  0 0.46875 0  0.1287800079303892 0.5340043503292357 0  2.441328451749267 0.3721441168812449 0  0.9333932382689634 0.2670516659043625 0  1.13959172768211 0.5827503401695603 0  0.8703665929291606 1.395134656069543 0  1.240468926246127 0.9364063612525604 0  1.433475419570003 1.229904687600933 0  1.020534477629395 0.9101139083191684 0  1.108777781305164 0.7462713331880694 0  0.6468125623079457 0.6038935958199032 0  1.665312060212151 0.428962863572448 0  0.2512528931669099 0.5500044694745148 0  2.66971919386773 0.2450375495263612 0  2.901855502368762 0.2640467328343441 0  2.063534245742155 0.9373123558679215 0  2.031795413587333 0.1972457754676831 0  1.836924180675512 1.065887991891963 0  1.001601941364679 1.16852535211421 0  0.8051266927803291 0.9581030042697194 0  0.7620228346493961 0.7461373576581022 0  3 1.03125 0  2.084817260746984 1.176705869274554 0  2.085981885570153 0.5347538843754811 0  1.496744890324478 0.239335226969819 0  1.894594308711337 0.8570406362709689 0  1.78125 1.5 0  2.109375 1.394928085212741 0  2.71875 1.5 0  0.4943575340553394 1.217544978302146 0  0.5937185858435849 1.055241883498284 0  2.227680725187669 0.3075299344665331 0  0.5158109084499103 0.3891628929402524 0  1.96875 1.5 0  0.6036564600183
[...]
<PointData  Tensors="f_492"> 
<DataArray  type="Float64"  Name="f_492"  NumberOfComponents="9" format="ascii">-8.7356580975271623e+00 -1.1036764435536099e+00 0.0000000000000000e+00 -1.1036764435536099e+00 -1.1773849902558849e+01 0.0000000000000000e+00 0.0000000000000000e+00 0.0000000000000000e+00 0.0000000000000000e+00  3.6860156272721589e+01 3.6056300428400418e+00 0.0000000000000000e+00 3.6056300428400418e+00 3.0013065959274620e+01 0.0000000000000000e+00 0.0000000000000000e+00 0.0000000000000000e+00 0.0000000000000000e+00  2.5553254202180998e+01 2.5575877137119902e+00 0.0000000000000000e+00 2.5575877137119902e+00 3.3704053199144901e+01 0.0000000000000000e+00 0.0000000000000000e+00 0.0000000000000000e+00 0.0000000000000000e+00  4.6646012444605034e+01 1.3824225749456813e+01 0.0000000000000000e+00 1.3824225749456813e+01 1.8706769847560523e+01 0.0000000000000000e+00 0.0000000000000000e+00 0.0000000000000000e+00 0.0000000000000000e+00  6.2475515096934160e+01 5.1040304541062085e+00 0.0000000000000000e+00 5.1040304541062085e+00 -1.3436270245751313e+01 0.0000000000000000e+00 0.0000000000000000e+00 0.0000000000000000e+00 0.0000000000000000e+00  8.2162198460642045e+01 9.0469663059736902e+00 0.0000000000000000e+00 9.0469663059736902e+00 -2.7995614853276440e+01 0.0000000000000000e+00 0.0000000000000000e+00 0.0000000000000000e+00 0.0000000000000000e+00  5.3676807365564571e+01 -5.2303229790462016e+00 0.0000000000000000e+00 -5.2303229790462016e+00 -3.3245302210637790e+00 0.0000000000000000e+00 0.0000000000000000e+00 0.0000000000000000e+00 0.0000000000000000e+00  3.3212761963575453e+01 2.5556211185033064e+01 0.0000000000000000e+00 2.5556211185033064e+01 1.4636819963712869e+01 0.0000000000000000e+00 0.0000000000000000e+00 0.0000000000000000e+00 0.0000000000000000e+00  3.8953933536781143e+01 4.7564811442686121e+01 0.0000000000000000e+00 4.7564811442686121e+01 3.9562188187846492e+00 0.0000000000000000e+00 0.0000000000000000e+00 0.0000000000000000e+00 0.0000000000000000e+00  1.4155602662197012e+01 1.0359997454023121e+01 0.0000000000000000e+00 1.0359997454023121e+01 4.9407394612171551e+01 0.0000000000000000e+00 0.0000000000000000e+00 0.0000000000000000e+00 0.0000000000000000e+00  -3.9247432531985069e+01 2.6945296018009600e+01 0.0000000000000000e+00 2.6945296018009600e+01 8.3479374479285681e+01 0.0000000000000000e+00 0.0000000000000000e+00 0.0000000000000000e+00 0.0000000000000000e+00  -3.1345870703181511e+01 5.1684432369996308e+01 0.0000000000000000e+00 5.1684432369996308e+01 8.0932534156398376e+01 0.0000000000000000e+00 0.0000000000000000e+00 0.0000000000000000e+00 0.0000000000000000e+00  3.6426610526382859e+01 9.6610263945026915e+00 0.0000000000000000e+00 9.6610263945026915e+00 3.0205100558200179e+01 0.0000000000000000e+00 0.0000000000000000e+00 0.0000000000000000e+00 0.0000000000000000e+00  2.4379815509082146e+01 4.5834233693011345e-01 0.0000000000000000e+00 4.5834233693011345e-01 2.2548298596278091e+01 0.0000000000000000e+00 0.0000000000000000e+00 0.0000000000000000e+00 0.0000000000000000e+00  4.0555647964655165e+01 1.1880889588251172e+01 0.0000000000000000e+00 1.1880889588251172e+01 1.5801885282399860e+01 0.0000000000000000e+00 0.0000000000000000e+00 0.0000000000000000e+00 0.0000000000000000e+00  2.6667880379612459e+01 1.1906019726522631e+01 0.0000000000000000e+00 1.1906019726522631e+01 2.1690433359664905e+01 0.0000000000000000e+00 0.0000000000000000e+00 0.0000000000000000e+00 0.0000000000000000e+00  -1.3964344711755967e+01 1.6056590652218745e+01 0.0000000000000000e+00 1.6056590652218745e+01 7.0369877878966065e+01 0.0000000000000000e+00 0.0000000000000000e+00 0.0000000000000000e+00 0.0000000000000000e+00  -7.4871805097792539e+00 3.9741947686512439e+01 0.0000000000000000e+00 3.9741947686512439e+01 5.8811735158644503e+01 0.0000000000000000e+00 0.0000000000000000e+00 0.0000000000000000e+00 0.0000000000000000e+00  7.1074083968652531e+00 -4.8688669837942378e+00 0.0000000000000000e+00 -4.8688669837942378e+00 4.9000662499943289e+01 0.0000000000000000e+00 0.0000000000000000e+00 0.0000000000000000e+00 0.0000000000000000e+00  -2.3206778464157487e+01 -3.4918390727049740e+01 0.0000000000000000e+00 -3.4918390727049740e+01 7.6846113882963067e+01 0.0000000000000000e+00 0.0000000000000000e+00 0.0000000000000000e+00 0.0000000000000000e+00  1.1700486898463307e+01 -1.1823951255658365e+01 0.0000000000000000e+00 -1.1823951255658365e+01 3.1543248034984856e+01 0.0000000000000000e+00 0.0000000000000000e+00 0.0000000000000000e+00 0.0000000000000000e+00  3.6000262455694632e+01 -1.4523097974531353e+01 0.0000000000000000e+00 -1.4523097974531353e+01 1.1050453888425439e+01 0.0000000000000000e+00 0.0000000000000000e+00 0.0000000000000000e+00 0.0000000000000000e+00  2.6594789773898448e+01 1.8092553483864153e+00 0.0000000000000000e+00 1.8092553483864153e+00 2.2830317281752844e+01 0.0000000000000000e+00 0.0000000000000000e+00 0.0000000000000000e+00 0.0000000000000000e+00  1.5669461231916122e+00 -8.0316021150740280e+00 0.0000000000000000e+00 -8.0316021150740280e+00 5.4206163426338364e+01 0.0000000000000000e+00 0.0000000000000000e+00 0.0000000000000000e+00 0.0000000000000000e+00  -1.1058791242667272e+01 -4.3158650893771558e+01 0.0000000000000000e+00 -4.3158650893771558e+01 6.2832600664129217e+01 0.0000000000000000e+00 0.0000000000000000e+00 0.0000000000000000e+00 0.0000000000000000e+00  -4.6707902823154640e+01 -2.3436591235322673e+01 0.0000000000000000e+00 -2.3436591235322673e+01 8.4247818894250187e+01 0.0000000000000000e+00 0.0000000000000000e+00 0.0000000000000000e+00 0.0000000000000000e+00  -1.7289346233744663e+01 -1.6138081640639268e+01 0.0000000000000000e+00 -1.6138081640639268e+01 6.1890143491726739e+01 0.0000000000000000e+00 0.0000000000000000e+00 0.0000000000000000e+00 0.0000000000000000e+00  3.0382034346739268e+01 -3.1052970816214692e+01 0.0000000000000000e+00 -3.1052970816214692e+01 1.8151693477418871e+01 0.0000000000000000e+00 0.0000000000000000e+00 0.0000000000000000e+00 0.0000000000000000e+00  3.0285380221313268e+01 -2.9644115787745985e+01 0.0000000000000000e+00 -2.9644115787745985e+01 1.0505243671388081e+01 0.0000000000000000e+00 0.0000000000000000e+00 0.0000000000000000e+00 0.0000000000000000e+00  4.1118270877828998e+01 3.1699096401174556e+00 0.0000000000000000e+00 3.1699096401174556e+00 2.1786064043686846e+00 0.0000000000000000e+00 0.0000000000000000e+00 0.0000000000000000e+00 0.0000000000000000e+00  6.8031432718198730e+01 1.1825516883202285e+01 0.0000000000000000e+00 1.1825516883202285e+01 -2.8314442416268129e+01 0.0000000000000000e+00 0.0000000000000000e+00 0.0000000000000000e+00 0.0000000000000000e+00  6.2089404685963210e+01 -1.9891873271964311e+00 0.0000000000000000e+00 -1.9891873271964311e+00 -1.0552142362650969e+01 0.0000000000000000e+00 0.0000000000000000e+00 0.0000000000000000e+00 0.0000000000000000e+00  3.3783005225612683e+01 -9.8604578579392292e+00 0.0000000000000000e+00 -9.8604578579392292e+00 1.6754803789162519e+01 0.0000000000000000e+00 0.0000000000000000e+00 0.0000000000000000e+00 0.0000000000000000e+00  2.5970938692522203e+01 -4.5039373802410282e-01 0.0000000000000000e+00 -4.5039373802410282e-01 2.0714111659824482e+01 0.0000000000000000e+00 0.0000000000000000e+00 0.0000000000000000e+00 0.0000000000000000e+00  3.0981050099752352e+01 -5.0392340990248918e+00 0.0000000000000000e+00 -5.0392340990248918e+00 2.0519382103119156e+01 0.0000000000000000e+00 0.0000000000000000e+00 0.0000000000000000e+00 0.0000000000000000e+00  -1.6097537291315536e+01 -2.2621759150260146e+01 0.0000000000000000e+00 -2.2621759150260146e+01 5.2340283234638612e+01 0.0000000000000000e+00 0.0000000000000000e+00 0.0000000000000000e+00 0.0000000000000000e+00  -2.2668088600740109e+01 -3.0914406663940998e+01 0.0000000000000000e+00 -3.0914406663940998e+01 6.3546424284951478e+01 0.0000000000000000e+00 0.0000000000000000e+00 0.0000000000000000e+00 0.0000000000000000e+00  -2.2568894016956506e+01 -1.6058523014853211e+01 0.0000000000000000e+00 -1.6058523014853211e+01 6.2565178265147658e+01 0.0000000000000000e+00 0.0000000000000000e+00 0.0000000000000000e+00 0.0000000000000000e+00  1.8771376632983547e+01 -2.3819609096846687e+01 0.0000000000000000e+00 -2.3819609096846687e+01 2.1041985790691015e+01 0.0000000000000000e+00 0.0000000000000000e+00 0.0000000000000000e+00 0.0000000000000000e+00  2.8020165043671749e+01 -4.0211178499739574e+01 0.0000000000000000e+00 -4.0211178499739574e+01 -2.8264954768781996e+00 0.0000000000000000e+00 0.0000000000000000e+00 0.0000000000000000e+00 0.0000000000000000e+00  4.2406896062796605e+01 -1.6772928892115144e+00 0.0000000000000000e+00 -1.6772928892115144e+00 -6.5105591725526422e+00 0.0000000000000000e+00 0.0000000000000000e+00 0.0000000000000000e+00 0.0000000000000000e+00  7.8202325838570289e+01 2.2631869143484860e+01 0.0000000000000000e+00 2.2631869143484860e+01 -3.1472165664713700e+01 0.0000000000000000e+00 0.0000000000000000e+00 0.0000000000000000e+00 0.0000000000000000e+00  7.9146551185714614e+01 -8.7241540071901582e+00 0.0000000000000000e+00 -8.7241540071901564e+00 -3.2050398717667171e+01 0.0000000000000000e+00 0.0000000000000000e+00 0.0000000000000000e+00 0.0000000000000000e+00  3.8303729895993037e+01 -2.0346387684896090e+01 0.0000000000000000e+00 -2.0346387684896090e+01 4.0716964684266275e+00 0.0000000000000000e+00 0.0000000000000000e+00 0.0000000000000000e+00 0.0000000000000000e+00  3.0364532790283587e+01 -4.2756245589150152e+00 0.0000000000000000e+00 -4.2756245589150161e+00 8.5469890443211849e+00 0.0000000000000000e+00 0.0000000000000000e+00 0.0000000000000000e+00 0.0000000000000000e+00  1.8595765452267663e+01 -2.8995478651585334e+00 0.0000000000000000e+00 -2.8995478651585329e+00 3.8270775323443274e+01 0.0000000000000000e+00 0.0000000000000000e+00 0.0000000000000000e+00 0.0000000000000000e+00  6.4543159159308781e+00 -5.8737484240368047e+00 0.0000000000000000e+00 -5.8737484240368047e+00 3.6973127820029092e+01 0.0000000000000000e+00 0.0000000000000000e+00 0.0000000000000000e+00 0.0000000000000000e+00  2.9532773129356453e+00 -1.1511490331640415e+01 0.0000000000000000e+00 -1.1511490331640415e+01 3.9179388364990295e+01 0.0000000000000000e+00 0.0000000000000000e+00 0.0000000000000000e+00 0.0000000000000000e+00  3.1199199658415068e+01 -3.8388155671329862e+01 0.0000000000000000e+00 -3.8388155671329862e+01 1.3597570341607845e+01 0.0000000000000000e+00 0.0000000000000000e+00 0.0000000000000000e+00 0.0000000000000000e+00  2.1080199767841478e+01 -4.8883253181788668e+01 0.0000000000000000e+00 -4.8883253181788668e+01 2.5480678636711964e+00 0.0000000000000000e+00 0.0000000000000000e+00 0.0000000000000000e+00 0.0000000000000000e+00  5.1413843610901139e+01 7.1674860193557033e-01 0.0000000000000000e+00 7.1674860193557033e-01 -1.5949367103377503e+01 0.0000000000000000e+00 0.0000000000000000e+00 0.0000000000000000e+00 0.0000000000000000e+00  7.6421117258852618e+01 5.3253041768808167e+00 0.0000000000000000e+00 5.3253041768808167e+00 -3.8287597410415557e+01 0.0000000000000000e+00 0.0000000000000000e+00 0.0000000000000000e+00 0.0000000000000000e+00  6.0546185911137371e+01 -2.9597710025513802e+01 0.0000000000000000e+00 -2.9597710025513802e+01 -2.3131381433469478e+01 0.0000000000000000e+00 0.0000000000000000e+00 0.0000000000000000e+00 0.0000000000000000e+00  1.2448955468418058e+01 -8.0596326953641348e+00 0.0000000000000000e+00 -8.0596326953641348e+00 2.2933800018283051e+01 0.0000000000000000e+00 0.0000000000000000e+00 0.0000000000000000e+00 0.0000000000000000e+00  2.7583286782207168e+01 -3.9485721499735562e+00 0.0000000000000000e+00 -3.9485721499735562e+00 1.0086132466305921e+01 0.0000000000000000e+00 0.0000000000000000e+00 0.0000000000000000e+00 0.0000000000000000e+00  3.3230950063261631e+01 1.7280110218569309e+01 0.0000000000000000e+00 1.7280110218569309e+01 4.4483916100986729e+00 0.0000000000000000e+00 0.0000000000000000e+00 0.0000000000000000e+00 0.0000000000000000e+00  5.0829069785960556e+01 1.4113455215182718e+01 0.0000000000000000e+00 1.4113455215182718e+01 -1.7471910430839319e+01 0.0000000000000000e+00 0.0000000000000000e+00 0.0000000000000000e+00 0.0000000000000000e+00  7.2103334276524507e+01 -6.5732756474704237e+00 0.0000000000000000e+00 -6.5732756474704237e+00 -4.2067771928827440e+01 0.0000000000000000e+00 0.0000000000000000e+00 0.0000000000000000e+00 0.0000000000000000e+00  7.2719749674859429e+01 -1.9917330907638792e+01 0.0000000000000000e+00 -1.9917330907638792e+01 -3.3739778565794595e+01 0.0000000000000000e+00 0.0000000000000000e+00 0.0000000000000000e+00 0.0000000000000000e+00  2.3612730155059406e+01 1.9434949965148618e+01 0.0000000000000000e+00 1.9434949965148618e+01 3.7004875536935669e+00 0.0000000000000000e+00 0.0000000000000000e+00 0.0000000000000000e+00 0.0000000000000000e+00  1.6306228825683611e+01 2.1671429444815526e+01 0.0000000000000000e+00 2.1671429444815526e+01 1.3860127457883440e+01 0.0000000000000000e+00 0.0000000000000000e+00 0.0000000000000000e+00 0.0000000000000000e+00  -1.2115069652226168e+01 1.3526643559325333e+00 0.0000000000000000e+00 1.3526643559325333e+00 4.3660418710006951e+01 0.0000000000000000e+00 0.0000000000000000e+00 0.0000000000000000e+00 0.0000000000000000e+00  -4.2927531432597540e+01 1.6385171334011947e+01 0.0000000000000000e+00 1.6385171334011947e+01 6.9405442785743716e+01 0.0000000000000000e+00 0.0000000000000000e+00 0.0000000000000000e+00 0.0000000000000000e+00  -1.1121191296054123e+01 1.4088764794900399e+01 0.0000000000000000e+00 1.4088764794900399e+01 3.7714789862838323e+01 0.0000000000000000e+00 0.0000000000000000e+00 0.0000000000000000e+00 0.0000000000000000e+00  1.3211108554645342e+01 -1.0333166073183579e+00 0.0000000000000000e+00 -1.0333166073183579e+00 2.6159013270652196e+01 0.0000000000000000e+00 0.0000000000000000e+00 0.0000000000000000e+00 0.0000000000000000e+00  1.7555959314177244e+01 1.1901342029703250e-01 0.0000000000000000e+00 1.1901342029703250e-01 1.8344309612674483e+01 0.0000000000000000e+00 0.0000000000000000e+00 0.0000000000000000e+00 0.0000000000000000e+00  2.5144083703857437e+01 9.0821157138672461e+00 0.0000000000000000e+00 9.0821157138672461e+00 3.2614577234912558e+00 0.0000000000000000e+00 0.0000000000000000e+00 0.0000000000000000e+00 0.0000000000000000e+00  6.5601247090933583e+01 2.5963019134543002e+00 0.0000000000000000e+00 2.5963019134543002e+00 -3.6630720770832831e+01 0.0000000000000000e+00 0.0000000000000000e+00 0.0000000000000000e+00 0.0000000000000000e+00  7.6038010023785915e+01 -3.2359090773915945e+01 0.0000000000000000e+00 -3.2359090773915945e+01 -6.5977808030941048e+01 0.0000000000000000e+00 0.0000000000000000e+00 0.0000000000000000e+00 0.0000000000000000e+00  3.4833256159297591e+01 -2.7311663157898867e+01 0.0000000000000000e+00 -2.7311663157898867e+01 -2.3669510900042987e+01 0.0000000000000000e+00 0.0000000000000000e+00 0.0000000000000000e+00 0.0000000000000000e+00  7.3088605747878788e+00 -9.1970409672320432e+00 0.0000000000000000e+00 -9.1970409672320432e+00 1.1362761739852576e+01 0.0000000000000000e+00 0.0000000000000000e+00 0.0000000000000000e+00 0.0000000000000000e+00  -2.9080810278257800e+01 -1.9993735091690471e+01 0.0000000000000000e+00 -1.9993735091690471e+01 6.2673343758486467e+01 0.0000000000000000e+00 0.0000000000000000e+00 0.0000000000000000e+00 0.0000000000000000e+00  -7.7968895476944340e+01 5.4121912139360164e+00 0.0000000000000000e+00 5.4121912139360164e+00 1.0686091279245743e+02 0.0000000000000000e+00 0.0000000000000000e+00 0.0000000000000000e+00 0.0000000000000000e+00  -5.0450986646351616e+01 7.2777010159921275e+01 0.0000000000000000e+00 7.2777010159921275e+01 6.5460148642399062e+01 0.0000000000000000e+00 0.0000000000000000e+00 0.0000000000000000e+00 0.0000000000000000e+00  -7.8090011961175216e+00 -1.4116794831152317e+01 0.0000000000000000e+00 -1.4116794831152317e+01 2.3412490554763846e+01 0.0000000000000000e+00 0.0000000000000000e+00 0.0000000000000000e+00 0.0000000000000000e+00  -6.8774941941012671e+01 6.5084128799562734e+01 0.0000000000000000e+00 6.5084128799562734e+01 -3.6225037777648033e+01 0.0000000000000000e+00 0.0000000000000000e+00 0.0000000000000000e+00 0.0000000000000000e+00  1.9254786504669599e+02 1.1703564263155174e+02 0.0000000000000000e+00 1.1703564263155174e+02 4.0748353767146952e+01 0.0000000000000000e+00 0.0000000000000000e+00 0.0000000000000000e+00 0.0000000000000000e+00  1.1127109182154129e+01 5.8251231438352661e+01 0.0000000000000000e+00 5.8251231438352661e+01 8.0634751668384954e+00 0.0000000000000000e+00 0.0000000000000000e+00 0.0000000000000000e+00 0.0000000000000000e+00  7.2745363774919092e-01 -1.3183648302065853e+02 0.0000000000000000e+00 -1.3183648302065853e+02 -1.4781146626397559e+00 0.0000000000000000e+00 0.0000000000000000e+00 0.0000000000000000e+00 0.0000000000000000e+00  -7.8905468923392241e-01 8.3394714084858936e+00 0.0000000000000000e+00 8.3394714084858936e+00 -2.7866766765948196e+01 0.0000000000000000e+00 0.0000000000000000e+00 0.0000000000000000e+00 0.0000000000000000e+00  1.7322037254293594e+01 5.9133745632725258e+01 0.0000000000000000e+00 5.9133745632725258e+01 2.1908095629268029e+01 0.0000000000000000e+00 0.0000000000000000e+00 0.0000000000000000e+00 0.0000000000000000e+00  2.8249460112490326e+01 4.8423994287782811e+01 0.0000000000000000e+00 4.8423994287782811e+01 1.7180083487463186e+01 0.0000000000000000e+00 0.0000000000000000e+00 0.0000000000000000e+00 0.0000000000000000e+00  2.1209206710572772e+01 2.8582188248286460e+01 0.0000000000000000e+00 2.8582188248286460e+01 3.3309975086357298e+01 0.0000000000000000e+00 0.0000000000000000e+00 0.0000000000000000e+00 0.0000000000000000e+00  -2.3405099023760101e+01 -6.2371245072939685e-01 0.0000000000000000e+00 -6.2371245072939685e-01 -3.3815755112388532e+00 0.0000000000000000e+00 0.0000000000000000e+00 0.0000000000000000e+00 0.0000000000000000e+00  -7.1648151218388918e+00 -4.2606925727433049e+00 0.0000000000000000e+00 -4.2606925727433049e+00 -8.1849398342746866e+00 0.0000000000000000e+00 0.0000000000000000e+00 0.0000000000000000e+00 0.0000000000000000e+00  3.4494638918325200e+00 1.1390339645237695e+01 0.0000000000000000e+00 1.1390339645237695e+01 3.4706962336152394e+00 0.0000000000000000e+00 0.0000000000000000e+00 0.0000000000000000e+00 0.0000000000000000e+00  1.9788535140640862e+00 9.8321620238892713e+00 0.0000000000000000e+00 9.8321620238892713e+00 1.9742564479576077e+00 0.0000000000000000e+00 0.0000000000000000e+00 0.0000000000000000e+00 0.0000000000000000e+00  3.1907084865554345e+00 9.5421619881508004e+00 0.0000000000000000e+00 9.5421619881508004e+00 3.3042154941166775e+00 0.0000000000000000e+00 0.0000000000000000e+00 0.0000000000000000e+00 0.0000000000000000e+00  -2.1522030456827275e+00 -3.4056652063234089e-01 0.0000000000000000e+00 -3.4056652063234083e-01 -3.4749963770574142e+00 0.0000000000000000e+00 0.0000000000000000e+00 0.0000000000000000e+00 0.0000000000000000e+00  3.9085367918710490e+00 -1.0904163754283420e+01 0.0000000000000000e+00 -1.0904163754283420e+01 4.9688565530171225e+00 0.0000000000000000e+00 0.0000000000000000e+00 0.0000000000000000e+00 0.0000000000000000e+00  -1.4646608515539450e+00 -9.2379313416822306e+00 0.0000000000000000e+00 -9.2379313416822306e+00 -1.6144924757179906e+00 0.0000000000000000e+00 0.0000000000000000e+00 0.0000000000000000e+00 0.0000000000000000e+00  1.2513580274341800e+01 4.4325778515764860e+00 0.0000000000000000e+00 4.4325778515764860e+00 1.2541726119739703e+01 0.0000000000000000e+00 0.0000000000000000e+00 0.0000000000000000e+00 0.0000000000000000e+00  8.6104474635241495e+00 -3.7786311755088109e-01 0.0000000000000000e+00 -3.7786311755088109e-01 8.7836974042951326e+00 0.0000000000000000e+00 0.0000000000000000e+00 0.0000000000000000e+00 0.0000000000000000e+00  -2.0344925508702723e+01 -4.7708936776043146e+01 0.0000000000000000e+00 -4.7708936776043146e+01 -1.5669016131497271e+01 0.0000000000000000e+00 0.0000000000000000e+00 0.0000000000000000e+00 0.0000000000000000e+00  1.2915506822111647e+01 -1.1778307086304865e+01 0.0000000000000000e+00 -1.1778307086304865e+01 1.2871486244345611e+01 0.0000000000000000e+00 0.0000000000000000e+00 0.0000000000000000e+00 0