<?xml version="1.0"?>
<VTKFile type="UnstructuredGrid"  version="0.1"  >
<UnstructuredGrid>
<Piece  NumberOfPoints="4978" NumberOfCells="9630">
<Points>
<DataArray  type="Float64"  NumberOfComponents="3"  format="ascii">0 1.5 0  0 0 0  0.06190941752361886 0 0  0.06190941752361886 0.02304324263930277 0  0.07687367483109155 0.06663263502519032 0  0.1051805799723963 0.1030013474942385 0  0.1437626405485843 0.128208265731708 0  0.1884388916338735 0.1395218290209338 0  0.2343679681997119 0.1357160372315063 0  0.2765727421371398 0.117203306956754 0  0.3104796713154951 0.0859897797765535 0  0.3324144138380889 0.04545792568865569 0  0.34 0 0  0.4722134970410927 0 0  0.4722134970410927 0.02388743731615415 0  0.4894717723551502 0.0684361811740563 0  0.5216574972706967 0.1037422395464312 0  0.5644238112906292 0.1250373336124665 0  0.6119948867302293 0.1294454429183545 0  0.6579459862509499 0.1163712278761581 0  0.6960711592386857 0.08758043367405244 0  0.7212213898225662 0.04696141660432988 0  0.73 0 0  0.85 0 0  0.857341522555727 0.04635254915624212 0  0.8786474508437579 0.08816778784387098 0  0.9118322121561291 0.1213525491562421 0  0.9536474508437579 0.142658477444273 0  1 0.15 0  1.046352549156242 0.142658477444273 0  1.088167787843871 0.1213525491562421 0  1.121352549156242 0.08816778784387097 0  1.142658477444273 0.04635254915624211 0  1.15 0 0  1.461909417523619 0 0  1.461909417523619 0.02304324263930277 0  1.476873674831092 0.06663263502519032 0  1.505180579972396 0.1030013474942385 0  1.543762640548584 0.128208265731708 0  1.588438891633874 0.1395218290209338 0  1.634367968199712 0.1357160372315063 0  1.67657274213714 0.117203306956754 0  1.710479671315495 0.0859897797765535 0  1.732414413838089 0.04545792568865569 0  1.74 0 0  1.78 0 0  1.789134456098646 0.04592201188381079 0  1.815147186257614 0.08485281374238571 0  1.854077988116189 0.1108655439013544 0  1.9 0.12 0  1.945922011883811 0.1108655439013544 0  1.984852813742386 0.08485281374238569 0  2.010865543901355 0.04592201188381077 0  2.02 0 0  2.161909417523619 0 0  2.161909417523619 0.02304324263930277 0  2.176873674831092 0.06663263502519032 0  2.205180579972396 0.1030013474942385 0  2.243762640548584 0.128208265731708 0  2.288438891633873 0.1395218290209338 0  2.334367968199712 0.1357160372315063 0  2.37657274213714 0.117203306956754 0  2.410479671315495 0.0859897797765535 0  2.432414413838089 0.04545792568865569 0  2.44 0 0  2.472213497041093 0 0  2.472213497041093 0.02388743731615415 0  2.48947177235515 0.0684361811740563 0  2.521657497270697 0.1037422395464312 0  2.564423811290629 0.1250373336124665 0  2.611994886730229 0.1294454429183545 0  2.65794598625095 0.1163712278761581 0  2.696071159238686 0.08758043367405244 0  2.721221389822567 0.04696141660432988 0  2.73 0 0  3 0 0  3 1.5 0  0 0.75 0  3 0.75 0  1.5 1.5 0  0 0.375 0  0 0.1875 0  0 0.09375 0  0.75 1.5 0  2.25 1.5 0  1.137279452465634 0.8667483509386543 0  2.055384907633385 0.8149748422668953 0  0.5545701656450307 0.9454298343549693 0  2.545804583542266 1.045804583542266 0  2.462951104370831 0.5854482317237805 0  1.6063536999151 1.018574336065804 0  0.7683179692414909 0.5511078775270282 0  1.647896012796697 0.5780189144999826 0  1.875 1.5 0  0.3683226130580748 0.5893782185394094 0  0.375 1.5 0  0 1.125 0  3 0.375 0  1.125 1.5 0  3 1.125 0  2.625 1.5 0  1.247216233241016 0.4851891764902285 0  0.8779404074027722 1.143194262378568 0  1.992337703792022 0.4642129848858538 0  2.200035536160075 1.144037289792772 0  1.3125 1.206118267007311 0  1.882280687299076 1.18026905614258 0  0.8375010042452264 0.8437030129736524 0  0.2703628106324028 0.8673582108832857 0  0.336944444033578 1.181320038574892 0  1.424720841531434 0.7792108746582741 0  2.763716218670896 0.5625 0  0.6112325230261646 1.216037756380734 0  2.429292395855053 1.293345775631689 0  2.798691155259055 0.9375 0  2.340750225085827 0.8450755885956063 0  2.74506315455788 1.24506315455788 0  0.4115012634770826 0.3359864655288552 0  1.6875 1.5 0  1.553212834656815 1.259295117559057 0  1.783849920010049 0.8130750647527071 0  2.590242300399914 0.800172794523538 0  2.206538789959823 0.6067588023913982 0  1.022769083327432 0.627137676743421 0  2.0625 1.5 0  2.566013274303806 0.3667751817948443 0  2.317230353528816 0.3853650267397287 0  0.9546600707351991 0.3912757388497677 0  1.76490060939521 0.3540000691256479 0  1.398169292756645 0.3089248951275104 0  0.1875 1.5 0  0.6961815191548208 0.3380429757712475 0  0.6390751493076395 0.7361434669345621 0  1.385952842918209 0.9972233609662619 0  1.082019261833385 1.265823315390121 0  2.784258672215756 0.3048233224522298 0  0 0.5625 0  0.2130557952202133 0.4325455696870932 0  2.110276358430479 0.2903936515686117 0  0 1.3125 0  0.5618175915722093 0.5022778936897083 0  1.438605690073396 0.5702366817214194 0  1.851778102902867 0.6169409446553686 0  0.9375 1.5 0  1.918499765346388 0.9737703250858507 0  1.066617221574711 1.060327143126178 0  0.17830064634795 0.65625 0  1.139464543633635 0.3182162642668528 0  1.214887260891528 0.6824917486258804 0  0.4470960700565646 0.7803305254813445 0  2.056073894593081 1.292965518236122 0  0.7800417460951754 1.309431349558015 0  0.7102942521579887 1.054059105222724 0  2.772203778896419 0.7508393899039921 0  3 0.9375 0  2.4375 1.5 0  0.5625 1.5 0  3 0.5625 0  1.3125 1.5 0  0 0.9375 0  3 1.3125 0  2.8125 1.5 0  3 0.1875 0  1.74009613212014 1.312845810865967 0  0.1858279553328271 1.04932632064409 0  1.582414108002925 0.3243096672004901 0  0.4576542986122824 1.328517530191622 0  1.30595470876181 0 0  0.1616828829631953 1.229471150973137 0  1.600689448835705 0.8342777580615786 0  2.184954406689295 0.9543424310663166 0  2.356848459734244 1.033731425282726 0  2.249618867339344 1.318565528322325 0  2.031012140730151 0.6383085966483963 0  1.264473591492607 0.1926369230867345 0  1.93294708275428 0.2969945700235964 0  1.406271966518558 1.353045118606616 0  0.2855042944080262 1.351202341158466 0  2.163692386827529 0.4469681835123645 0  2.058709899218631 1.05982604745508 0  1.21875 1.361760465218127 0  1.232585115983139 1.060656719142284 0  1.682328919476849 1.161572426192166 0  0.4864612871934715 1.100927295036068 0  2.842393003195402 0.1547034389615206 0  1.901710724058898 1.340659870484523 0  2.578488906869203 1.212378831230944 0  0.346730023619794 1.013455011579226 0  1.758789788261688 0.970834021568154 0  0.9209577900333827 0.984909924281538 0  2.461973640748163 0.2490632223012221 0  2.833434714842781 1.102015011431888 0  1.485476187845101 1.118115752354218 0  0.7869575052851041 0.2127716822913992 0  1.091585464669657 0.4673676525872368 0  0.9308375558444295 1.286291202675726 0  2.609275627299536 0.5207885309723005 0  2.859418780372727 0.4404724026784034 0  0.1368795735450182 0.2913992261536034 0  0.5088670694303536 0.6431238265444117 0  0.9924988599062848 0.7887715626383616 0  0.8674753477047706 0.6821390867986818 0  0.6993572585883594 0.9038049302516018 0  1.53924450853783 0.6818717864694561 0  1.27954362181495 0.818196911265721 0  2.885754890315292 0.65625 0  0.1199579452929171 0.84375 0  0.3101130847613819 0.7251157056441525 0  2.683488575489726 1.10528265125029 0  2.637912450120847 1.350340704724588 0  0.65625 1.387568746661148 0  2.204969505432462 0.7645924845263576 0  2.34230217156612 0.6870332922078795 0  2.458336421316689 0.930056573232228 0  1.547170662421109 0.4687109428674099 0  0.55426355401875 0.2785752421136156 0  1.927690911684502 0.7425770788416013 0  2.650983472818039 0.6639703826486528 0  0.2807744135836687 0.2731407085328489 0  2.697063502273202 0.4130460425434029 0  1.768721210125562 0.4985606178023466 0  1.59375 1.394491048145999 0  1.03125 1.39617417476255 0  2.649124789533757 0.9376608889715211 0  2.899345577629528 0.84375 0  2.448792339301353 1.151333513094988 0  2.455516477512143 0.7671738041202795 0  0.1479512725554237 1.367277900867101 0  1.733007556765436 0.6856365299097277 0  2.865 0 0  0.407900401917371 0.1920322062602331 0  1.482893533441057 0.9020086108979886 0  2.902194538181383 1.21875 0  2.860324471164851 1.360324471164851 0  0.9128790560808855 0.5311054613533476 0  0.7396036279203969 1.183264973390871 0  1.379392725427689 0.4456149894503371 0  0.8305263666170877 0.339868595109382 0  2.352639297837627 1.399880277695907 0  2.15625 1.5 0  2.32277762299786 1.203473773731512 0  1.818471673600783 0.235727380341035 0  1.269129800285538 0.3222823294390822 0  2.329228807632851 0.5297324129610972 0  0.430777275012463 0.469645907614299 0  1.390502090335328 0.1630587681988043 0  1.149408636841162 1.157447166816889 0  1.687853147042319 0.2519031106491252 0  0.3941048876243997 0.8956837842542459 0  1.877835046604575 0.410724628626283 0  1.348230251479045 0.6691802479050837 0  2.336954765206726 0.2613063289913201 0  2.514033953321691 1.393470229958569 0  0 0.46875 0  0.1287800079303892 0.5340043503292357 0  2.441328451749267 0.3721441168812449 0  0.9333932382689634 0.2670516659043625 0  1.13959172768211 0.5827503401695603 0  0.8703665929291606 1.395134656069543 0  1.240468926246127 0.9364063612525604 0  1.433475419570003 1.229904687600933 0  1.020534477629395 0.9101139083191684 0  1.108777781305164 0.7462713331880694 0  0.6468125623079457 0.6038935958199032 0  1.665312060212151 0.428962863572448 0  0.2512528931669099 0.5500044694745148 0  2.66971919386773 0.2450375495263612 0  2.901855502368762 0.2640467328343441 0  2.063534245742155 0.9373123558679215 0  2.031795413587333 0.1972457754676831 0  1.836924180675512 1.065887991891963 0  1.001601941364679 1.16852535211421 0  0.8051266927803291 0.9581030042697194 0  0.7620228346493961 0.7461373576581022 0  3 1.03125 0  2.084817260746984 1.176705869274554 0  2.085981885570153 0.5347538843754811 0  1.496744890324478 0.239335226969819 0  1.894594308711337 0.8570406362709689 0  1.78125 1.5 0  2.109375 1.394928085212741 0  2.71875 1.5 0  0.4943575340553394 1.217544978302146 0  0.5937185858435849 1.055241883498284 0  2.227680725187669 0.3075299344665331 0  0.5158109084499103 0.3891628929402524 0  1.96875 1.5 0  0.6036564600183
[...]
<PointData  Tensors="f_188"> 
<DataArray  type="Float64"  Name="f_188"  NumberOfComponents="9" format="ascii">5.3373228510185555e-01 -1.0887211489459728e+01 0.0000000000000000e+00 -1.0887211489459728e+01 -7.3127816470000107e-01 0.0000000000000000e+00 0.0000000000000000e+00 0.0000000000000000e+00 0.0000000000000000e+00  2.4298854487134889e+01 -1.0882623324555812e+01 0.0000000000000000e+00 -1.0882623324555812e+01 1.5256695717912979e+01 0.0000000000000000e+00 0.0000000000000000e+00 0.0000000000000000e+00 0.0000000000000000e+00  2.2740092791964781e+01 7.9293595760142841e+00 0.0000000000000000e+00 7.9293595760142841e+00 2.6196701218813992e+01 0.0000000000000000e+00 0.0000000000000000e+00 0.0000000000000000e+00 0.0000000000000000e+00  3.9225372212404132e+01 6.5770738830480830e+00 0.0000000000000000e+00 6.5770738830480830e+00 2.4375338368239927e+01 0.0000000000000000e+00 0.0000000000000000e+00 0.0000000000000000e+00 0.0000000000000000e+00  4.0357395849417557e+01 2.6173163955702257e+00 0.0000000000000000e+00 2.6173163955702257e+00 1.2710978898678041e+01 0.0000000000000000e+00 0.0000000000000000e+00 0.0000000000000000e+00 0.0000000000000000e+00  4.9052066342377962e+01 5.5691296900926766e+00 0.0000000000000000e+00 5.5691296900926766e+00 7.3223676793372947e+00 0.0000000000000000e+00 0.0000000000000000e+00 0.0000000000000000e+00 0.0000000000000000e+00  3.8406058272796763e+01 -2.4974453079853420e-01 0.0000000000000000e+00 -2.4974453079853420e-01 1.2149152463313971e+01 0.0000000000000000e+00 0.0000000000000000e+00 0.0000000000000000e+00 0.0000000000000000e+00  2.9075044573594830e+01 6.7672270278692377e+00 0.0000000000000000e+00 6.7672270278692377e+00 1.9162560259671157e+01 0.0000000000000000e+00 0.0000000000000000e+00 0.0000000000000000e+00 0.0000000000000000e+00  2.8521675117474341e+01 1.8521268156436747e+01 0.0000000000000000e+00 1.8521268156436747e+01 1.5566646059166450e+01 0.0000000000000000e+00 0.0000000000000000e+00 0.0000000000000000e+00 0.0000000000000000e+00  2.0843106426668943e+01 3.7838460872362680e+00 0.0000000000000000e+00 3.7838460872362680e+00 3.4553085014314512e+01 0.0000000000000000e+00 0.0000000000000000e+00 0.0000000000000000e+00 0.0000000000000000e+00  4.7984458681251825e+00 8.2759899004033652e+00 0.0000000000000000e+00 8.2759899004033652e+00 4.3564193836285277e+01 0.0000000000000000e+00 0.0000000000000000e+00 0.0000000000000000e+00 0.0000000000000000e+00  4.0806599814304105e+00 1.6472621183461193e+01 0.0000000000000000e+00 1.6472621183461193e+01 4.5678988160942538e+01 0.0000000000000000e+00 0.0000000000000000e+00 0.0000000000000000e+00 0.0000000000000000e+00  2.7206662531087321e+01 -5.3524463639628399e+00 0.0000000000000000e+00 -5.3524463639628399e+00 8.1625266982193239e+00 0.0000000000000000e+00 0.0000000000000000e+00 0.0000000000000000e+00 0.0000000000000000e+00  2.4472546415259245e+01 -7.9870959451421886e-01 0.0000000000000000e+00 -7.9870959451421886e-01 2.8637142259628373e+01 0.0000000000000000e+00 0.0000000000000000e+00 0.0000000000000000e+00 0.0000000000000000e+00  3.2579886976304245e+01 5.3016473573786547e+00 0.0000000000000000e+00 5.3016473573786547e+00 2.3573568858350033e+01 0.0000000000000000e+00 0.0000000000000000e+00 0.0000000000000000e+00 0.0000000000000000e+00  2.4706838078304084e+01 3.6849298299303390e+00 0.0000000000000000e+00 3.6849298299303390e+00 2.3836832499968061e+01 0.0000000000000000e+00 0.0000000000000000e+00 0.0000000000000000e+00 0.0000000000000000e+00  1.1967203815941174e+01 6.6248093991138459e+00 0.0000000000000000e+00 6.6248093991138459e+00 4.1851907265824977e+01 0.0000000000000000e+00 0.0000000000000000e+00 0.0000000000000000e+00 0.0000000000000000e+00  1.4205269780670674e+01 1.2463008720038705e+01 0.0000000000000000e+00 1.2463008720038705e+01 3.4855678345431265e+01 0.0000000000000000e+00 0.0000000000000000e+00 0.0000000000000000e+00 0.0000000000000000e+00  1.7920717864755950e+01 -4.1810420552362992e-01 0.0000000000000000e+00 -4.1810420552362992e-01 3.4200729053620513e+01 0.0000000000000000e+00 0.0000000000000000e+00 0.0000000000000000e+00 0.0000000000000000e+00  4.4727082319353766e+00 -1.3593188221311632e+01 0.0000000000000000e+00 -1.3593188221311632e+01 4.5646209545296109e+01 0.0000000000000000e+00 0.0000000000000000e+00 0.0000000000000000e+00 0.0000000000000000e+00  1.9005825568964269e+01 -4.5821470630635064e+00 0.0000000000000000e+00 -4.5821470630635064e+00 2.5335986371695100e+01 0.0000000000000000e+00 0.0000000000000000e+00 0.0000000000000000e+00 0.0000000000000000e+00  2.7229084890604696e+01 -4.2029219293383537e+00 0.0000000000000000e+00 -4.2029219293383537e+00 1.9528423364051203e+01 0.0000000000000000e+00 0.0000000000000000e+00 0.0000000000000000e+00 0.0000000000000000e+00  2.4282582062414743e+01 -5.3847648100179814e-02 0.0000000000000000e+00 -5.3847648100179814e-02 2.4460879496585132e+01 0.0000000000000000e+00 0.0000000000000000e+00 0.0000000000000000e+00 0.0000000000000000e+00  1.4642113159704039e+01 -2.9016464327468938e+00 0.0000000000000000e+00 -2.9016464327468938e+00 3.7502713505921065e+01 0.0000000000000000e+00 0.0000000000000000e+00 0.0000000000000000e+00 0.0000000000000000e+00  1.2212553096304996e+01 -1.2455795523078434e+01 0.0000000000000000e+00 -1.2455795523078434e+01 3.8740025898109749e+01 0.0000000000000000e+00 0.0000000000000000e+00 0.0000000000000000e+00 0.0000000000000000e+00  9.7002534621687286e-01 -7.7009158596861162e+00 0.0000000000000000e+00 -7.7009158596861162e+00 4.1843602448794549e+01 0.0000000000000000e+00 0.0000000000000000e+00 0.0000000000000000e+00 0.0000000000000000e+00  9.9617052645955724e+00 -6.0652984990404590e+00 0.0000000000000000e+00 -6.0652984990404590e+00 3.5235975851888959e+01 0.0000000000000000e+00 0.0000000000000000e+00 0.0000000000000000e+00 0.0000000000000000e+00  2.5571518625991288e+01 -1.0161130965689910e+01 0.0000000000000000e+00 -1.0161130965689910e+01 2.2249371726233992e+01 0.0000000000000000e+00 0.0000000000000000e+00 0.0000000000000000e+00 0.0000000000000000e+00  2.5707427242053335e+01 -8.5853240746516022e+00 0.0000000000000000e+00 -8.5853240746516022e+00 1.5923043546334489e+01 0.0000000000000000e+00 0.0000000000000000e+00 0.0000000000000000e+00 0.0000000000000000e+00  2.9264717401321388e+01 -7.2875970310076321e-01 0.0000000000000000e+00 -7.2875970310076321e-01 1.2777983558873226e+01 0.0000000000000000e+00 0.0000000000000000e+00 0.0000000000000000e+00 0.0000000000000000e+00  3.5633465421432383e+01 3.1605805346395694e+00 0.0000000000000000e+00 3.1605805346395694e+00 5.7321942816156506e+00 0.0000000000000000e+00 0.0000000000000000e+00 0.0000000000000000e+00 0.0000000000000000e+00  3.6932023071116781e+01 -1.8570813354469082e+00 0.0000000000000000e+00 -1.8570813354469082e+00 1.2599968970551535e+01 0.0000000000000000e+00 0.0000000000000000e+00 0.0000000000000000e+00 0.0000000000000000e+00  2.9477897579098318e+01 -4.7754142461634066e+00 0.0000000000000000e+00 -4.7754142461634066e+00 2.1142997457795502e+01 0.0000000000000000e+00 0.0000000000000000e+00 0.0000000000000000e+00 0.0000000000000000e+00  2.7260649928086533e+01 -1.2443379723992967e+00 0.0000000000000000e+00 -1.2443379723992967e+00 2.3040189903223684e+01 0.0000000000000000e+00 0.0000000000000000e+00 0.0000000000000000e+00 0.0000000000000000e+00  2.5114420956097018e+01 4.3560643649101296e+00 0.0000000000000000e+00 4.3560643649101296e+00 7.1644564499718193e+00 0.0000000000000000e+00 0.0000000000000000e+00 0.0000000000000000e+00 0.0000000000000000e+00  9.2996974820377964e+00 -8.4282478103873899e+00 0.0000000000000000e+00 -8.4282478103873899e+00 2.9770273352858588e+01 0.0000000000000000e+00 0.0000000000000000e+00 0.0000000000000000e+00 0.0000000000000000e+00  8.2990556536959765e+00 -9.3101512049111275e+00 0.0000000000000000e+00 -9.3101512049111275e+00 3.5485927700770354e+01 0.0000000000000000e+00 0.0000000000000000e+00 0.0000000000000000e+00 0.0000000000000000e+00  8.3674415388575980e+00 -5.7427052117398327e+00 0.0000000000000000e+00 -5.7427052117398327e+00 3.4081498320143666e+01 0.0000000000000000e+00 0.0000000000000000e+00 0.0000000000000000e+00 0.0000000000000000e+00  1.8694099438678425e+01 -9.2766932746950470e+00 0.0000000000000000e+00 -9.2766932746950470e+00 2.1097643044038985e+01 0.0000000000000000e+00 0.0000000000000000e+00 0.0000000000000000e+00 0.0000000000000000e+00  2.0771657843407006e+01 -1.4106726737652462e+01 0.0000000000000000e+00 -1.4106726737652462e+01 9.7818298029682804e+00 0.0000000000000000e+00 0.0000000000000000e+00 0.0000000000000000e+00 0.0000000000000000e+00  2.8197520008265474e+01 -1.8850007311405801e+00 0.0000000000000000e+00 -1.8850007311405801e+00 7.4626034559636114e+00 0.0000000000000000e+00 0.0000000000000000e+00 0.0000000000000000e+00 0.0000000000000000e+00  4.1374779417862428e+01 6.2054183089037620e+00 0.0000000000000000e+00 6.2054183089037620e+00 1.6538632828667261e+00 0.0000000000000000e+00 0.0000000000000000e+00 0.0000000000000000e+00 0.0000000000000000e+00  4.1718559322639891e+01 -3.3590006499443734e+00 0.0000000000000000e+00 -3.3590006499443734e+00 2.6026388412003247e+00 0.0000000000000000e+00 0.0000000000000000e+00 0.0000000000000000e+00 0.0000000000000000e+00  3.0751030421396937e+01 -8.9929935668369936e+00 0.0000000000000000e+00 -8.9929935668369918e+00 1.5530319817241109e+01 0.0000000000000000e+00 0.0000000000000000e+00 0.0000000000000000e+00 0.0000000000000000e+00  2.9080711649710402e+01 -3.3115093741834039e+00 0.0000000000000000e+00 -3.3115093741834043e+00 1.4931778380121669e+01 0.0000000000000000e+00 0.0000000000000000e+00 0.0000000000000000e+00 0.0000000000000000e+00  2.3004381827122891e+01 -9.9176870041227816e-01 0.0000000000000000e+00 -9.9176870041227794e-01 2.9622289690995306e+01 0.0000000000000000e+00 0.0000000000000000e+00 0.0000000000000000e+00 0.0000000000000000e+00  1.7937538372076517e+01 4.8673489216372778e-01 0.0000000000000000e+00 4.8673489216372767e-01 2.7822689791247441e+01 0.0000000000000000e+00 0.0000000000000000e+00 0.0000000000000000e+00 0.0000000000000000e+00  1.5963648100204143e+01 -4.6764543772272305e+00 0.0000000000000000e+00 -4.6764543772272305e+00 2.4895214596226712e+01 0.0000000000000000e+00 0.0000000000000000e+00 0.0000000000000000e+00 0.0000000000000000e+00  2.3264159818300797e+01 -1.2706511252920331e+01 0.0000000000000000e+00 -1.2706511252920331e+01 1.8758378432883767e+01 0.0000000000000000e+00 0.0000000000000000e+00 0.0000000000000000e+00 0.0000000000000000e+00  1.8848424626100346e+01 -1.7047173021927673e+01 0.0000000000000000e+00 -1.7047173021927673e+01 9.4468175956982172e+00 0.0000000000000000e+00 0.0000000000000000e+00 0.0000000000000000e+00 0.0000000000000000e+00  2.9749023658269365e+01 -1.6428378976382720e+00 0.0000000000000000e+00 -1.6428378976382720e+00 4.5104498135773463e+00 0.0000000000000000e+00 0.0000000000000000e+00 0.0000000000000000e+00 0.0000000000000000e+00  3.7702580661417457e+01 2.8183783401502482e-01 0.0000000000000000e+00 2.8183783401502482e-01 1.6748686509525859e-01 0.0000000000000000e+00 0.0000000000000000e+00 0.0000000000000000e+00 0.0000000000000000e+00  3.5425022955870190e+01 -1.1236653803637665e+01 0.0000000000000000e+00 -1.1236653803637665e+01 1.9752077302513884e+00 0.0000000000000000e+00 0.0000000000000000e+00 0.0000000000000000e+00 0.0000000000000000e+00  1.3132471736219207e+01 -9.8892233510889849e+00 0.0000000000000000e+00 -9.8892233510889849e+00 1.4902587415237535e+01 0.0000000000000000e+00 0.0000000000000000e+00 0.0000000000000000e+00 0.0000000000000000e+00  2.6144181666730198e+01 -1.1245686915034794e+00 0.0000000000000000e+00 -1.1245686915034794e+00 1.0758946050971989e+01 0.0000000000000000e+00 0.0000000000000000e+00 0.0000000000000000e+00 0.0000000000000000e+00  2.5934414334024975e+01 6.8692771687900986e+00 0.0000000000000000e+00 6.8692771687900986e+00 1.3845736715117043e+01 0.0000000000000000e+00 0.0000000000000000e+00 0.0000000000000000e+00 0.0000000000000000e+00  2.9222475264512205e+01 5.3918441362367346e+00 0.0000000000000000e+00 5.3918441362367346e+00 6.7452536290815583e+00 0.0000000000000000e+00 0.0000000000000000e+00 0.0000000000000000e+00 0.0000000000000000e+00  3.5435375187243054e+01 -7.9045040949601764e-01 0.0000000000000000e+00 -7.9045040949601764e-01 -2.6030141920513263e+00 0.0000000000000000e+00 0.0000000000000000e+00 0.0000000000000000e+00 0.0000000000000000e+00  3.8167888193026563e+01 -5.0155028446312846e+00 0.0000000000000000e+00 -5.0155028446312846e+00 -2.5139192877018126e+00 0.0000000000000000e+00 0.0000000000000000e+00 0.0000000000000000e+00 0.0000000000000000e+00  1.8000638950094373e+01 5.1189607913086581e+00 0.0000000000000000e+00 5.1189607913086581e+00 7.9429601980554434e+00 0.0000000000000000e+00 0.0000000000000000e+00 0.0000000000000000e+00 0.0000000000000000e+00  1.4970325211356348e+01 5.9557527009880022e+00 0.0000000000000000e+00 5.9557527009880022e+00 1.4196770016678474e+01 0.0000000000000000e+00 0.0000000000000000e+00 0.0000000000000000e+00 0.0000000000000000e+00  6.5787000432680092e+00 8.3465180553127716e-01 0.0000000000000000e+00 8.3465180553127716e-01 2.5481016422260467e+01 0.0000000000000000e+00 0.0000000000000000e+00 0.0000000000000000e+00 0.0000000000000000e+00  -3.2485883343151376e+00 4.4489724043552172e+00 0.0000000000000000e+00 4.4489724043552172e+00 3.2857709064963444e+01 0.0000000000000000e+00 0.0000000000000000e+00 0.0000000000000000e+00 0.0000000000000000e+00  3.5497250235326541e+00 1.3791938310526162e+00 0.0000000000000000e+00 1.3791938310526162e+00 2.3344471090786968e+01 0.0000000000000000e+00 0.0000000000000000e+00 0.0000000000000000e+00 0.0000000000000000e+00  1.4353439118284575e+01 5.6116573426532468e-01 0.0000000000000000e+00 5.6116573426532468e-01 2.4455136929305937e+01 0.0000000000000000e+00 0.0000000000000000e+00 0.0000000000000000e+00 0.0000000000000000e+00  1.3640840999675206e+01 6.0583412271223978e+00 0.0000000000000000e+00 6.0583412271223978e+00 1.0819746954234084e+01 0.0000000000000000e+00 0.0000000000000000e+00 0.0000000000000000e+00 0.0000000000000000e+00  2.2146628594912947e+01 5.8952710766109258e+00 0.0000000000000000e+00 5.8952710766109258e+00 8.3748056803440356e+00 0.0000000000000000e+00 0.0000000000000000e+00 0.0000000000000000e+00 0.0000000000000000e+00  3.2783016975493190e+01 3.6580348284311209e-01 0.0000000000000000e+00 3.6580348284311209e-01 -5.3627083909671089e+00 0.0000000000000000e+00 0.0000000000000000e+00 0.0000000000000000e+00 0.0000000000000000e+00  3.3979785259552990e+01 -1.1424099311078130e+01 0.0000000000000000e+00 -1.1424099311078130e+01 -1.8556014207685720e+01 0.0000000000000000e+00 0.0000000000000000e+00 0.0000000000000000e+00 0.0000000000000000e+00  1.7625854065908161e+01 -8.5684390570932347e+00 0.0000000000000000e+00 -8.5684390570932347e+00 -2.4514658100855065e+00 0.0000000000000000e+00 0.0000000000000000e+00 0.0000000000000000e+00 0.0000000000000000e+00  8.2242494735843898e+00 -4.4885200754301477e+00 0.0000000000000000e+00 -4.4885200754301477e+00 1.0245231135893007e+01 0.0000000000000000e+00 0.0000000000000000e+00 0.0000000000000000e+00 0.0000000000000000e+00  -1.9618607716756911e+00 -6.2139723820485395e+00 0.0000000000000000e+00 -6.2139723820485395e+00 2.7110743629274921e+01 0.0000000000000000e+00 0.0000000000000000e+00 0.0000000000000000e+00 0.0000000000000000e+00  -1.8337736339211734e+01 -1.0040913222720498e+00 0.0000000000000000e+00 -1.0040913222720498e+00 4.3656775673040777e+01 0.0000000000000000e+00 0.0000000000000000e+00 0.0000000000000000e+00 0.0000000000000000e+00  -1.3817302509831755e+01 2.3138086852992181e+01 0.0000000000000000e+00 2.3138086852992181e+01 2.5573304559421771e+01 0.0000000000000000e+00 0.0000000000000000e+00 0.0000000000000000e+00 0.0000000000000000e+00  -2.1074598080887230e+00 -4.6710377092091653e+00 0.0000000000000000e+00 -4.6710377092091653e+00 1.4732719448631954e+01 0.0000000000000000e+00 0.0000000000000000e+00 0.0000000000000000e+00 0.0000000000000000e+00  -4.5597007345727533e+01 4.3357856154461672e+01 0.0000000000000000e+00 4.3357856154461672e+01 -2.6484748215614239e+01 0.0000000000000000e+00 0.0000000000000000e+00 0.0000000000000000e+00 0.0000000000000000e+00  7.1517377051720842e+01 4.5541029903474694e+01 0.0000000000000000e+00 4.5541029903474694e+01 1.9067255269207593e+01 0.0000000000000000e+00 0.0000000000000000e+00 0.0000000000000000e+00 0.0000000000000000e+00  1.0556933633258740e+01 1.9159846219872517e+01 0.0000000000000000e+00 1.9159846219872517e+01 9.2321010327180542e+00 0.0000000000000000e+00 0.0000000000000000e+00 0.0000000000000000e+00 0.0000000000000000e+00  5.7888289951819139e-01 -4.6257117397985169e+01 0.0000000000000000e+00 -4.6257117397985169e+01 -6.3199785665661590e-01 0.0000000000000000e+00 0.0000000000000000e+00 0.0000000000000000e+00 0.0000000000000000e+00  -8.6057684259994556e+00 3.0566139538976622e+00 0.0000000000000000e+00 3.0566139538976622e+00 -1.9882421883509846e+01 0.0000000000000000e+00 0.0000000000000000e+00 0.0000000000000000e+00 0.0000000000000000e+00  1.8686560282259446e+01 1.9348475617876534e+01 0.0000000000000000e+00 1.9348475617876534e+01 2.0807657540051220e+01 0.0000000000000000e+00 0.0000000000000000e+00 0.0000000000000000e+00 0.0000000000000000e+00  2.5391188051282214e+01 1.4962994108248603e+01 0.0000000000000000e+00 1.4962994108248603e+01 2.1756825560603183e+01 0.0000000000000000e+00 0.0000000000000000e+00 0.0000000000000000e+00 0.0000000000000000e+00  2.4666811622145616e+01 8.9704534642840343e+00 0.0000000000000000e+00 8.9704534642840343e+00 2.9498712103196851e+01 0.0000000000000000e+00 0.0000000000000000e+00 0.0000000000000000e+00 0.0000000000000000e+00  -1.7995826877949423e+01 -5.0063516602726454e-01 0.0000000000000000e+00 -5.0063516602726454e-01 -5.4362618679631831e+00 0.0000000000000000e+00 0.0000000000000000e+00 0.0000000000000000e+00 0.0000000000000000e+00  -1.0521205392084831e+01 -1.7179773246494912e+00 0.0000000000000000e+00 -1.7179773246494912e+00 -5.4188358358525717e+00 0.0000000000000000e+00 0.0000000000000000e+00 0.0000000000000000e+00 0.0000000000000000e+00  3.5922024965542931e+00 3.1381421181093510e+00 0.0000000000000000e+00 3.1381421181093510e+00 3.5895315914691013e+00 0.0000000000000000e+00 0.0000000000000000e+00 0.0000000000000000e+00 0.0000000000000000e+00  2.0541480901569042e+00 2.7204453594874876e+00 0.0000000000000000e+00 2.7204453594874876e+00 2.0634151005146713e+00 0.0000000000000000e+00 0.0000000000000000e+00 0.0000000000000000e+00 0.0000000000000000e+00  3.3496364909785057e+00 2.6264779718000528e+00 0.0000000000000000e+00 2.6264779718000528e+00 3.3742193104722258e+00 0.0000000000000000e+00 0.0000000000000000e+00 0.0000000000000000e+00 0.0000000000000000e+00  -2.3304114356468402e+00 -2.9915021513336797e-02 0.0000000000000000e+00 -2.9915021513336797e-02 -2.8033778499985518e+00 0.0000000000000000e+00 0.0000000000000000e+00 0.0000000000000000e+00 0.0000000000000000e+00  4.3254210474410018e+00 -2.9992615715160400e+00 0.0000000000000000e+00 -2.9992615715160400e+00 4.6569602969247095e+00 0.0000000000000000e+00 0.0000000000000000e+00 0.0000000000000000e+00 0.0000000000000000e+00  -1.3830315012359633e+00 -2.5362070016589167e+00 0.0000000000000000e+00 -2.5362070016589175e+00 -1.4283418299659876e+00 0.0000000000000000e+00 0.0000000000000000e+00 0.0000000000000000e+00 0.0000000000000000e+00  1.2671898909640237e+01 1.2136852298537251e+00 0.0000000000000000e+00 1.2136852298537251e+00 1.2682562894694989e+01 0.0000000000000000e+00 0.0000000000000000e+00 0.0000000000000000e+00 0.0000000000000000e+00  8.7903782481081407e+00 -9.1190959999924395e-02 0.0000000000000000e+00 -9.1190959999924395e-02 8.8566217379273109e+00 0.0000000000000000e+00 0.0000000000000000e+00 0.0000000000000000e+00 0.0000000000000000e+00  -1.6230332588052004e+01 -1.3800554774299389e+01 0.0000000000000000e+00 -1.3800554774299389e+01 -1.4542671809692482e+01 0.0000000000000000e+00 0.0000000000000000e+00 0.0000000000000000e+00 0.0000000000000000e+00  1.3043828636235624e+01 -3.2324115979628902e+00 0.0000000000000000e+00 -3.2324115979628902e+00 1.3028565961030232e+01 0.0000000000000000e+00 0.0000000000000000e+00 0.0000000000000000e+00 0.0000000000000000e+