<?xml version="1.0"?>
<VTKFile type="UnstructuredGrid"  version="0.1"  >
<UnstructuredGrid>
<Piece  NumberOfPoints="4978" NumberOfCells="9630">
<Points>
<DataArray  type="Float64"  NumberOfComponents="3"  format="ascii">0 1.5 0  0 0 0  0.06190941752361886 0 0  0.06190941752361886 0.02304324263930277 0  0.07687367483109155 0.06663263502519032 0  0.1051805799723963 0.1030013474942385 0  0.1437626405485843 0.128208265731708 0  0.1884388916338735 0.1395218290209338 0  0.2343679681997119 0.1357160372315063 0  0.2765727421371398 0.117203306956754 0  0.3104796713154951 0.0859897797765535 0  0.3324144138380889 0.04545792568865569 0  0.34 0 0  0.4722134970410927 0 0  0.4722134970410927 0.02388743731615415 0  0.4894717723551502 0.0684361811740563 0  0.5216574972706967 0.1037422395464312 0  0.5644238112906292 0.1250373336124665 0  0.6119948867302293 0.1294454429183545 0  0.6579459862509499 0.1163712278761581 0  0.6960711592386857 0.08758043367405244 0  0.7212213898225662 0.04696141660432988 0  0.73 0 0  0.85 0 0  0.857341522555727 0.04635254915624212 0  0.8786474508437579 0.08816778784387098 0  0.9118322121561291 0.1213525491562421 0  0.9536474508437579 0.142658477444273 0  1 0.15 0  1.046352549156242 0.142658477444273 0  1.088167787843871 0.1213525491562421 0  1.121352549156242 0.08816778784387097 0  1.142658477444273 0.04635254915624211 0  1.15 0 0  1.461909417523619 0 0  1.461909417523619 0.02304324263930277 0  1.476873674831092 0.06663263502519032 0  1.505180579972396 0.1030013474942385 0  1.543762640548584 0.128208265731708 0  1.588438891633874 0.1395218290209338 0  1.634367968199712 0.1357160372315063 0  1.67657274213714 0.117203306956754 0  1.710479671315495 0.0859897797765535 0  1.732414413838089 0.04545792568865569 0  1.74 0 0  1.78 0 0  1.789134456098646 0.04592201188381079 0  1.815147186257614 0.08485281374238571 0  1.854077988116189 0.1108655439013544 0  1.9 0.12 0  1.945922011883811 0.1108655439013544 0  1.984852813742386 0.08485281374238569 0  2.010865543901355 0.04592201188381077 0  2.02 0 0  2.161909417523619 0 0  2.161909417523619 0.02304324263930277 0  2.176873674831092 0.06663263502519032 0  2.205180579972396 0.1030013474942385 0  2.243762640548584 0.128208265731708 0  2.288438891633873 0.1395218290209338 0  2.334367968199712 0.1357160372315063 0  2.37657274213714 0.117203306956754 0  2.410479671315495 0.0859897797765535 0  2.432414413838089 0.04545792568865569 0  2.44 0 0  2.472213497041093 0 0  2.472213497041093 0.02388743731615415 0  2.48947177235515 0.0684361811740563 0  2.521657497270697 0.1037422395464312 0  2.564423811290629 0.1250373336124665 0  2.611994886730229 0.1294454429183545 0  2.65794598625095 0.1163712278761581 0  2.696071159238686 0.08758043367405244 0  2.721221389822567 0.04696141660432988 0  2.73 0 0  3 0 0  3 1.5 0  0 0.75 0  3 0.75 0  1.5 1.5 0  0 0.375 0  0 0.1875 0  0 0.09375 0  0.75 1.5 0  2.25 1.5 0  1.137279452465634 0.8667483509386543 0  2.055384907633385 0.8149748422668953 0  0.5545701656450307 0.9454298343549693 0  2.545804583542266 1.045804583542266 0  2.462951104370831 0.5854482317237805 0  1.6063536999151 1.018574336065804 0  0.7683179692414909 0.5511078775270282 0  1.647896012796697 0.5780189144999826 0  1.875 1.5 0  0.3683226130580748 0.5893782185394094 0  0.375 1.5 0  0 1.125 0  3 0.375 0  1.125 1.5 0  3 1.125 0  2.625 1.5 0  1.247216233241016 0.4851891764902285 0  0.8779404074027722 1.143194262378568 0  1.992337703792022 0.4642129848858538 0  2.200035536160075 1.144037289792772 0  1.3125 1.206118267007311 0  1.882280687299076 1.18026905614258 0  0.8375010042452264 0.8437030129736524 0  0.2703628106324028 0.8673582108832857 0  0.336944444033578 1.181320038574892 0  1.424720841531434 0.7792108746582741 0  2.763716218670896 0.5625 0  0.6112325230261646 1.216037756380734 0  2.429292395855053 1.293345775631689 0  2.798691155259055 0.9375 0  2.340750225085827 0.8450755885956063 0  2.74506315455788 1.24506315455788 0  0.4115012634770826 0.3359864655288552 0  1.6875 1.5 0  1.553212834656815 1.259295117559057 0  1.783849920010049 0.8130750647527071 0  2.590242300399914 0.800172794523538 0  2.206538789959823 0.6067588023913982 0  1.022769083327432 0.627137676743421 0  2.0625 1.5 0  2.566013274303806 0.3667751817948443 0  2.317230353528816 0.3853650267397287 0  0.9546600707351991 0.3912757388497677 0  1.76490060939521 0.3540000691256479 0  1.398169292756645 0.3089248951275104 0  0.1875 1.5 0  0.6961815191548208 0.3380429757712475 0  0.6390751493076395 0.7361434669345621 0  1.385952842918209 0.9972233609662619 0  1.082019261833385 1.265823315390121 0  2.784258672215756 0.3048233224522298 0  0 0.5625 0  0.2130557952202133 0.4325455696870932 0  2.110276358430479 0.2903936515686117 0  0 1.3125 0  0.5618175915722093 0.5022778936897083 0  1.438605690073396 0.5702366817214194 0  1.851778102902867 0.6169409446553686 0  0.9375 1.5 0  1.918499765346388 0.9737703250858507 0  1.066617221574711 1.060327143126178 0  0.17830064634795 0.65625 0  1.139464543633635 0.3182162642668528 0  1.214887260891528 0.6824917486258804 0  0.4470960700565646 0.7803305254813445 0  2.056073894593081 1.292965518236122 0  0.7800417460951754 1.309431349558015 0  0.7102942521579887 1.054059105222724 0  2.772203778896419 0.7508393899039921 0  3 0.9375 0  2.4375 1.5 0  0.5625 1.5 0  3 0.5625 0  1.3125 1.5 0  0 0.9375 0  3 1.3125 0  2.8125 1.5 0  3 0.1875 0  1.74009613212014 1.312845810865967 0  0.1858279553328271 1.04932632064409 0  1.582414108002925 0.3243096672004901 0  0.4576542986122824 1.328517530191622 0  1.30595470876181 0 0  0.1616828829631953 1.229471150973137 0  1.600689448835705 0.8342777580615786 0  2.184954406689295 0.9543424310663166 0  2.356848459734244 1.033731425282726 0  2.249618867339344 1.318565528322325 0  2.031012140730151 0.6383085966483963 0  1.264473591492607 0.1926369230867345 0  1.93294708275428 0.2969945700235964 0  1.406271966518558 1.353045118606616 0  0.2855042944080262 1.351202341158466 0  2.163692386827529 0.4469681835123645 0  2.058709899218631 1.05982604745508 0  1.21875 1.361760465218127 0  1.232585115983139 1.060656719142284 0  1.682328919476849 1.161572426192166 0  0.4864612871934715 1.100927295036068 0  2.842393003195402 0.1547034389615206 0  1.901710724058898 1.340659870484523 0  2.578488906869203 1.212378831230944 0  0.346730023619794 1.013455011579226 0  1.758789788261688 0.970834021568154 0  0.9209577900333827 0.984909924281538 0  2.461973640748163 0.2490632223012221 0  2.833434714842781 1.102015011431888 0  1.485476187845101 1.118115752354218 0  0.7869575052851041 0.2127716822913992 0  1.091585464669657 0.4673676525872368 0  0.9308375558444295 1.286291202675726 0  2.609275627299536 0.5207885309723005 0  2.859418780372727 0.4404724026784034 0  0.1368795735450182 0.2913992261536034 0  0.5088670694303536 0.6431238265444117 0  0.9924988599062848 0.7887715626383616 0  0.8674753477047706 0.6821390867986818 0  0.6993572585883594 0.9038049302516018 0  1.53924450853783 0.6818717864694561 0  1.27954362181495 0.818196911265721 0  2.885754890315292 0.65625 0  0.1199579452929171 0.84375 0  0.3101130847613819 0.7251157056441525 0  2.683488575489726 1.10528265125029 0  2.637912450120847 1.350340704724588 0  0.65625 1.387568746661148 0  2.204969505432462 0.7645924845263576 0  2.34230217156612 0.6870332922078795 0  2.458336421316689 0.930056573232228 0  1.547170662421109 0.4687109428674099 0  0.55426355401875 0.2785752421136156 0  1.927690911684502 0.7425770788416013 0  2.650983472818039 0.6639703826486528 0  0.2807744135836687 0.2731407085328489 0  2.697063502273202 0.4130460425434029 0  1.768721210125562 0.4985606178023466 0  1.59375 1.394491048145999 0  1.03125 1.39617417476255 0  2.649124789533757 0.9376608889715211 0  2.899345577629528 0.84375 0  2.448792339301353 1.151333513094988 0  2.455516477512143 0.7671738041202795 0  0.1479512725554237 1.367277900867101 0  1.733007556765436 0.6856365299097277 0  2.865 0 0  0.407900401917371 0.1920322062602331 0  1.482893533441057 0.9020086108979886 0  2.902194538181383 1.21875 0  2.860324471164851 1.360324471164851 0  0.9128790560808855 0.5311054613533476 0  0.7396036279203969 1.183264973390871 0  1.379392725427689 0.4456149894503371 0  0.8305263666170877 0.339868595109382 0  2.352639297837627 1.399880277695907 0  2.15625 1.5 0  2.32277762299786 1.203473773731512 0  1.818471673600783 0.235727380341035 0  1.269129800285538 0.3222823294390822 0  2.329228807632851 0.5297324129610972 0  0.430777275012463 0.469645907614299 0  1.390502090335328 0.1630587681988043 0  1.149408636841162 1.157447166816889 0  1.687853147042319 0.2519031106491252 0  0.3941048876243997 0.8956837842542459 0  1.877835046604575 0.410724628626283 0  1.348230251479045 0.6691802479050837 0  2.336954765206726 0.2613063289913201 0  2.514033953321691 1.393470229958569 0  0 0.46875 0  0.1287800079303892 0.5340043503292357 0  2.441328451749267 0.3721441168812449 0  0.9333932382689634 0.2670516659043625 0  1.13959172768211 0.5827503401695603 0  0.8703665929291606 1.395134656069543 0  1.240468926246127 0.9364063612525604 0  1.433475419570003 1.229904687600933 0  1.020534477629395 0.9101139083191684 0  1.108777781305164 0.7462713331880694 0  0.6468125623079457 0.6038935958199032 0  1.665312060212151 0.428962863572448 0  0.2512528931669099 0.5500044694745148 0  2.66971919386773 0.2450375495263612 0  2.901855502368762 0.2640467328343441 0  2.063534245742155 0.9373123558679215 0  2.031795413587333 0.1972457754676831 0  1.836924180675512 1.065887991891963 0  1.001601941364679 1.16852535211421 0  0.8051266927803291 0.9581030042697194 0  0.7620228346493961 0.7461373576581022 0  3 1.03125 0  2.084817260746984 1.176705869274554 0  2.085981885570153 0.5347538843754811 0  1.496744890324478 0.239335226969819 0  1.894594308711337 0.8570406362709689 0  1.78125 1.5 0  2.109375 1.394928085212741 0  2.71875 1.5 0  0.4943575340553394 1.217544978302146 0  0.5937185858435849 1.055241883498284 0  2.227680725187669 0.3075299344665331 0  0.5158109084499103 0.3891628929402524 0  1.96875 1.5 0  0.6036564600183
[...]
<PointData  Tensors="f_834"> 
<DataArray  type="Float64"  Name="f_834"  NumberOfComponents="9" format="ascii">-6.6172898269029599e+00 -2.6565187848160243e+00 0.0000000000000000e+00 -2.6565187848160243e+00 -1.2199595486966887e+01 0.0000000000000000e+00 0.0000000000000000e+00 0.0000000000000000e+00 0.0000000000000000e+00  3.5851086230670219e+01 2.8488306035842541e+00 0.0000000000000000e+00 2.8488306035842541e+00 2.7514405130950461e+01 0.0000000000000000e+00 0.0000000000000000e+00 0.0000000000000000e+00 0.0000000000000000e+00  2.4282851017290977e+01 3.3962855164649146e+00 0.0000000000000000e+00 3.3962855164649146e+00 3.1588684056699307e+01 0.0000000000000000e+00 0.0000000000000000e+00 0.0000000000000000e+00 0.0000000000000000e+00  5.0857497845446886e+01 1.7213504621061798e+01 0.0000000000000000e+00 1.7213504621061798e+01 1.3310510088456395e+01 0.0000000000000000e+00 0.0000000000000000e+00 0.0000000000000000e+00 0.0000000000000000e+00  7.7819775644167194e+01 9.9502259578926573e+00 0.0000000000000000e+00 9.9502259578926573e+00 -3.1671738476737449e+01 0.0000000000000000e+00 0.0000000000000000e+00 0.0000000000000000e+00 0.0000000000000000e+00  1.0634360248556355e+02 4.5003359441242594e+00 0.0000000000000000e+00 4.5003359441242594e+00 -5.4806640419534432e+01 0.0000000000000000e+00 0.0000000000000000e+00 0.0000000000000000e+00 0.0000000000000000e+00  6.6704006609256695e+01 -1.1085609081574905e+01 0.0000000000000000e+00 -1.1085609081574905e+01 -1.5372441800692338e+01 0.0000000000000000e+00 0.0000000000000000e+00 0.0000000000000000e+00 0.0000000000000000e+00  3.6322929796405688e+01 4.2141624820447774e+01 0.0000000000000000e+00 4.2141624820447774e+01 1.3074032009110041e+01 0.0000000000000000e+00 0.0000000000000000e+00 0.0000000000000000e+00 0.0000000000000000e+00  4.5918239632615020e+01 6.9210939971073529e+01 0.0000000000000000e+00 6.9210939971073529e+01 -3.7399909128941848e+00 0.0000000000000000e+00 0.0000000000000000e+00 0.0000000000000000e+00 0.0000000000000000e+00  8.6635881026872532e+00 1.3784197137372859e+01 0.0000000000000000e+00 1.3784197137372859e+01 5.9749383600774088e+01 0.0000000000000000e+00 0.0000000000000000e+00 0.0000000000000000e+00 0.0000000000000000e+00  -7.7040535289702632e+01 4.4792021847495434e+01 0.0000000000000000e+00 4.4792021847495434e+01 1.1652417063126164e+02 0.0000000000000000e+00 0.0000000000000000e+00 0.0000000000000000e+00 0.0000000000000000e+00  -6.1485477912493494e+01 8.3772525663125904e+01 0.0000000000000000e+00 8.3772525663125904e+01 1.0854998580297294e+02 0.0000000000000000e+00 0.0000000000000000e+00 0.0000000000000000e+00 0.0000000000000000e+00  3.3388387659364156e+01 9.5876238785919519e+00 0.0000000000000000e+00 9.5876238785919519e+00 3.5221464620237079e+01 0.0000000000000000e+00 0.0000000000000000e+00 0.0000000000000000e+00 0.0000000000000000e+00  2.5514769714212260e+01 -4.1054265803453904e-01 0.0000000000000000e+00 -4.1054265803453904e-01 1.9537945001672249e+01 0.0000000000000000e+00 0.0000000000000000e+00 0.0000000000000000e+00 0.0000000000000000e+00  4.5800842726556645e+01 1.5934625681505851e+01 0.0000000000000000e+00 1.5934625681505851e+01 1.0289252403289112e+01 0.0000000000000000e+00 0.0000000000000000e+00 0.0000000000000000e+00 0.0000000000000000e+00  2.9770581759255396e+01 1.8481739232051819e+01 0.0000000000000000e+00 1.8481739232051819e+01 1.8484219109106657e+01 0.0000000000000000e+00 0.0000000000000000e+00 0.0000000000000000e+00 0.0000000000000000e+00  -3.6864076820137548e+01 2.4391701715094957e+01 0.0000000000000000e+00 2.4391701715094957e+01 9.4860353829866355e+01 0.0000000000000000e+00 0.0000000000000000e+00 0.0000000000000000e+00 0.0000000000000000e+00  -2.6947376533742325e+01 5.9712992257184254e+01 0.0000000000000000e+00 5.9712992257184254e+01 7.9373579645755854e+01 0.0000000000000000e+00 0.0000000000000000e+00 0.0000000000000000e+00 0.0000000000000000e+00  1.0233323534916332e+00 -6.8591652075472274e+00 0.0000000000000000e+00 -6.8591652075472274e+00 6.1206583193626969e+01 0.0000000000000000e+00 0.0000000000000000e+00 0.0000000000000000e+00 0.0000000000000000e+00  -4.7773860958944958e+01 -5.2919422852806932e+01 0.0000000000000000e+00 -5.2919422852806932e+01 1.0251985623617396e+02 0.0000000000000000e+00 0.0000000000000000e+00 0.0000000000000000e+00 0.0000000000000000e+00  5.7063979337558361e+00 -1.8144389380857852e+01 0.0000000000000000e+00 -1.8144389380857852e+01 3.8035201765830209e+01 0.0000000000000000e+00 0.0000000000000000e+00 0.0000000000000000e+00 0.0000000000000000e+00  4.2467998055312968e+01 -2.1993090747302485e+01 0.0000000000000000e+00 -2.1993090747302485e+01 3.8564819096357379e+00 0.0000000000000000e+00 0.0000000000000000e+00 0.0000000000000000e+00 0.0000000000000000e+00  2.8045094082955135e+01 3.2940329982828516e+00 0.0000000000000000e+00 3.2940329982828516e+00 2.0932127748497823e+01 0.0000000000000000e+00 0.0000000000000000e+00 0.0000000000000000e+00 0.0000000000000000e+00  -3.9211830591179186e+00 -1.4403310540693594e+01 0.0000000000000000e+00 -1.4403310540693594e+01 6.5426668242205622e+01 0.0000000000000000e+00 0.0000000000000000e+00 0.0000000000000000e+00 0.0000000000000000e+00  -3.2648176806871724e+01 -7.2755607888985594e+01 0.0000000000000000e+00 -7.2755607888985594e+01 8.3096348624879141e+01 0.0000000000000000e+00 0.0000000000000000e+00 0.0000000000000000e+00 0.0000000000000000e+00  -8.8888496159328980e+01 -3.8450507277448352e+01 0.0000000000000000e+00 -3.8450507277448352e+01 1.2150608467625595e+02 0.0000000000000000e+00 0.0000000000000000e+00 0.0000000000000000e+00 0.0000000000000000e+00  -3.9753359223083805e+01 -2.2741178845748490e+01 0.0000000000000000e+00 -2.2741178845748490e+01 8.6264638506556551e+01 0.0000000000000000e+00 0.0000000000000000e+00 0.0000000000000000e+00 0.0000000000000000e+00  3.0538067644091520e+01 -4.6672400800526702e+01 0.0000000000000000e+00 -4.6672400800526702e+01 1.6070561995033884e+01 0.0000000000000000e+00 0.0000000000000000e+00 0.0000000000000000e+00 0.0000000000000000e+00  2.8984608109265455e+01 -4.9480871937764796e+01 0.0000000000000000e+00 -4.9480871937764796e+01 7.7417901489687200e+00 0.0000000000000000e+00 0.0000000000000000e+00 0.0000000000000000e+00 0.0000000000000000e+00  5.1143482578821789e+01 9.7230045456014533e+00 0.0000000000000000e+00 9.7230045456014533e+00 -7.3590013113932793e+00 0.0000000000000000e+00 0.0000000000000000e+00 0.0000000000000000e+00 0.0000000000000000e+00  9.4548829086950363e+01 2.4350335404811904e+01 0.0000000000000000e+00 2.4350335404811904e+01 -5.7142453837977087e+01 0.0000000000000000e+00 0.0000000000000000e+00 0.0000000000000000e+00 0.0000000000000000e+00  7.9884966060395385e+01 -2.2234485198739966e+00 0.0000000000000000e+00 -2.2234485198739966e+00 -2.9517562717914299e+01 0.0000000000000000e+00 0.0000000000000000e+00 0.0000000000000000e+00 0.0000000000000000e+00  3.5766792784433243e+01 -1.1972355879032602e+01 0.0000000000000000e+00 -1.1972355879032602e+01 1.3994972149978732e+01 0.0000000000000000e+00 0.0000000000000000e+00 0.0000000000000000e+00 0.0000000000000000e+00  2.4283179510201382e+01 -5.0056477937335220e-01 0.0000000000000000e+00 -5.0056477937335220e-01 1.8419335003778187e+01 0.0000000000000000e+00 0.0000000000000000e+00 0.0000000000000000e+00 0.0000000000000000e+00  2.6928026039747877e+01 -2.9462436289232317e+00 0.0000000000000000e+00 -2.9462436289232317e+00 2.1760830944448998e+01 0.0000000000000000e+00 0.0000000000000000e+00 0.0000000000000000e+00 0.0000000000000000e+00  -3.8068464529658605e+01 -3.3710553366088305e+01 0.0000000000000000e+00 -3.3710553366088305e+01 7.2030627917963443e+01 0.0000000000000000e+00 0.0000000000000000e+00 0.0000000000000000e+00 0.0000000000000000e+00  -5.0120763308924197e+01 -5.4250984695830120e+01 0.0000000000000000e+00 -5.4250984695830120e+01 8.5762799914999761e+01 0.0000000000000000e+00 0.0000000000000000e+00 0.0000000000000000e+00 0.0000000000000000e+00  -4.8984055972832145e+01 -2.6584833263438625e+01 0.0000000000000000e+00 -2.6584833263438625e+01 8.7356620544186754e+01 0.0000000000000000e+00 0.0000000000000000e+00 0.0000000000000000e+00 0.0000000000000000e+00  1.8455519920635609e+01 -3.3555913185837866e+01 0.0000000000000000e+00 -3.3555913185837866e+01 2.2632085808015265e+01 0.0000000000000000e+00 0.0000000000000000e+00 0.0000000000000000e+00 0.0000000000000000e+00  2.7296491285864672e+01 -6.5008279620879080e+01 0.0000000000000000e+00 -6.5008279620879080e+01 -8.3587852575455504e+00 0.0000000000000000e+00 0.0000000000000000e+00 0.0000000000000000e+00 0.0000000000000000e+00  5.4015477852713801e+01 -5.3379713530445549e-01 0.0000000000000000e+00 -5.3379713530445549e-01 -1.5995444909054429e+01 0.0000000000000000e+00 0.0000000000000000e+00 0.0000000000000000e+00 0.0000000000000000e+00  1.0903349410783647e+02 3.8334816630415823e+01 0.0000000000000000e+00 3.8334816630415823e+01 -6.3174837502968842e+01 0.0000000000000000e+00 0.0000000000000000e+00 0.0000000000000000e+00 0.0000000000000000e+00  1.0534815975893233e+02 -9.7053712824286720e+00 0.0000000000000000e+00 -9.7053712824286720e+00 -5.8652494844187792e+01 0.0000000000000000e+00 0.0000000000000000e+00 0.0000000000000000e+00 0.0000000000000000e+00  4.2470037133781197e+01 -2.6616357959201910e+01 0.0000000000000000e+00 -2.6616357959201910e+01 -2.3786408153134184e+00 0.0000000000000000e+00 0.0000000000000000e+00 0.0000000000000000e+00 0.0000000000000000e+00  2.9420865072091303e+01 -4.5875832728098676e+00 0.0000000000000000e+00 -4.5875832728098676e+00 6.9017193831922272e+00 0.0000000000000000e+00 0.0000000000000000e+00 0.0000000000000000e+00 0.0000000000000000e+00  1.6202791561110452e+01 -3.4654271050635477e+00 0.0000000000000000e+00 -3.4654271050635468e+00 4.1390908341692494e+01 0.0000000000000000e+00 0.0000000000000000e+00 0.0000000000000000e+00 0.0000000000000000e+00  -3.9812291359851781e+00 -1.3401035170336057e+01 0.0000000000000000e+00 -1.3401035170336057e+01 4.5222599118632594e+01 0.0000000000000000e+00 0.0000000000000000e+00 0.0000000000000000e+00 0.0000000000000000e+00  -1.0520151703020021e+01 -1.6518026018235577e+01 0.0000000000000000e+00 -1.6518026018235577e+01 5.1994950971547979e+01 0.0000000000000000e+00 0.0000000000000000e+00 0.0000000000000000e+00 0.0000000000000000e+00  3.5443434151083622e+01 -5.8428846046167202e+01 0.0000000000000000e+00 -5.8428846046167202e+01 9.2738709314930361e+00 0.0000000000000000e+00 0.0000000000000000e+00 0.0000000000000000e+00 0.0000000000000000e+00  1.9977391174207877e+01 -7.7482422601296662e+01 0.0000000000000000e+00 -7.7482422601296662e+01 -3.1056059776313862e+00 0.0000000000000000e+00 0.0000000000000000e+00 0.0000000000000000e+00 0.0000000000000000e+00  6.9977454903443970e+01 5.1898171117160006e+00 0.0000000000000000e+00 5.1898171117160006e+00 -3.3731069439863717e+01 0.0000000000000000e+00 0.0000000000000000e+00 0.0000000000000000e+00 0.0000000000000000e+00  1.0928133287992863e+02 1.1765728302244682e+01 0.0000000000000000e+00 1.1765728302244682e+01 -7.2941688916598778e+01 0.0000000000000000e+00 0.0000000000000000e+00 0.0000000000000000e+00 0.0000000000000000e+00  7.8352593761098106e+01 -4.2564187703163931e+01 0.0000000000000000e+00 -4.2564187703163931e+01 -4.0925131647110838e+01 0.0000000000000000e+00 0.0000000000000000e+00 0.0000000000000000e+00 0.0000000000000000e+00  1.0432297728163217e+01 -9.9099236053706417e+00 0.0000000000000000e+00 -9.9099236053706417e+00 1.9950186566290949e+01 0.0000000000000000e+00 0.0000000000000000e+00 0.0000000000000000e+00 0.0000000000000000e+00  2.7501917553638840e+01 -4.9080070930302275e+00 0.0000000000000000e+00 -4.9080070930302275e+00 8.7398204596115434e+00 0.0000000000000000e+00 0.0000000000000000e+00 0.0000000000000000e+00 0.0000000000000000e+00  3.7658635755574160e+01 2.2413898175119009e+01 0.0000000000000000e+00 2.2413898175119009e+01 -1.9446153241403077e+00 0.0000000000000000e+00 0.0000000000000000e+00 0.0000000000000000e+00 0.0000000000000000e+00  6.6570480607100734e+01 2.0288068437971713e+01 0.0000000000000000e+00 2.0288068437971713e+01 -3.6104103368025072e+01 0.0000000000000000e+00 0.0000000000000000e+00 0.0000000000000000e+00 0.0000000000000000e+00  9.9649774954584984e+01 -1.5985930688670265e+01 0.0000000000000000e+00 -1.5985930688670265e+01 -7.6750382166886567e+01 0.0000000000000000e+00 0.0000000000000000e+00 0.0000000000000000e+00 0.0000000000000000e+00  9.5129223696157155e+01 -3.3548010841638423e+01 0.0000000000000000e+00 -3.3548010841638423e+01 -5.7888340394883471e+01 0.0000000000000000e+00 0.0000000000000000e+00 0.0000000000000000e+00 0.0000000000000000e+00  2.5685218207411776e+01 3.2096949692892672e+01 0.0000000000000000e+00 3.2096949692892672e+01 1.3864509403920433e+00 0.0000000000000000e+00 0.0000000000000000e+00 0.0000000000000000e+00 0.0000000000000000e+00  1.5545870939062629e+01 3.3859753216984892e+01 0.0000000000000000e+00 3.3859753216984892e+01 1.4616965884449080e+01 0.0000000000000000e+00 0.0000000000000000e+00 0.0000000000000000e+00 0.0000000000000000e+00  -2.9389915371178574e+01 -7.7332491047862173e-01 0.0000000000000000e+00 -7.7332491047862173e-01 6.0673891253029019e+01 0.0000000000000000e+00 0.0000000000000000e+00 0.0000000000000000e+00 0.0000000000000000e+00  -7.9460511837722137e+01 2.9610936783450349e+01 0.0000000000000000e+00 2.9610936783450349e+01 1.0244470383071592e+02 0.0000000000000000e+00 0.0000000000000000e+00 0.0000000000000000e+00 0.0000000000000000e+00  -2.4599013093500524e+01 2.3784555047921909e+01 0.0000000000000000e+00 2.3784555047921909e+01 5.0517055510240979e+01 0.0000000000000000e+00 0.0000000000000000e+00 0.0000000000000000e+00 0.0000000000000000e+00  1.1804759321937489e+01 -1.5560098113599929e+00 0.0000000000000000e+00 -1.5560098113599929e+00 2.6706496921483314e+01 0.0000000000000000e+00 0.0000000000000000e+00 0.0000000000000000e+00 0.0000000000000000e+00  1.6438659190449926e+01 4.4649681007132119e-01 0.0000000000000000e+00 4.4649681007132119e-01 1.6954993314766341e+01 0.0000000000000000e+00 0.0000000000000000e+00 0.0000000000000000e+00 0.0000000000000000e+00  2.5750714141192415e+01 9.8407849269999641e+00 0.0000000000000000e+00 9.8407849269999641e+00 6.6120809865932573e-01 0.0000000000000000e+00 0.0000000000000000e+00 0.0000000000000000e+00 0.0000000000000000e+00  8.6079260767148241e+01 7.7829415228282075e+00 0.0000000000000000e+00 7.7829415228282075e+00 -5.5065882505768577e+01 0.0000000000000000e+00 0.0000000000000000e+00 0.0000000000000000e+00 0.0000000000000000e+00  1.0846786978511460e+02 -4.8712401701044989e+01 0.0000000000000000e+00 -4.8712401701044989e+01 -1.0467816645304023e+02 0.0000000000000000e+00 0.0000000000000000e+00 0.0000000000000000e+00 0.0000000000000000e+00  4.8459646095145402e+01 -4.0036353060147157e+01 0.0000000000000000e+00 -4.0036353060147157e+01 -3.8231877575963914e+01 0.0000000000000000e+00 0.0000000000000000e+00 0.0000000000000000e+00 0.0000000000000000e+00  4.8643728783689726e+00 -1.3368034412922354e+01 0.0000000000000000e+00 -1.3368034412922354e+01 1.2558031940152675e+01 0.0000000000000000e+00 0.0000000000000000e+00 0.0000000000000000e+00 0.0000000000000000e+00  -5.2940815811689880e+01 -3.1215433735711805e+01 0.0000000000000000e+00 -3.1215433735711805e+01 9.3310033123312778e+01 0.0000000000000000e+00 0.0000000000000000e+00 0.0000000000000000e+00 0.0000000000000000e+00  -1.3607043635270918e+02 2.6375981272931426e+01 0.0000000000000000e+00 2.6375981272931426e+01 1.5758122149808432e+02 0.0000000000000000e+00 0.0000000000000000e+00 0.0000000000000000e+00 0.0000000000000000e+00  -8.5520961457933780e+01 1.2197013913428081e+02 0.0000000000000000e+00 1.2197013913428081e+02 1.0481056618545887e+02 0.0000000000000000e+00 0.0000000000000000e+00 0.0000000000000000e+00 0.0000000000000000e+00  -7.2979322054878706e+00 -1.3577990673252613e+01 0.0000000000000000e+00 -1.3577990673252613e+01 2.7944474777021906e+01 0.0000000000000000e+00 0.0000000000000000e+00 0.0000000000000000e+00 0.0000000000000000e+00  -1.1797830473885566e+02 9.6800571876869725e+01 0.0000000000000000e+00 9.6800571876869725e+01 -3.5917884054521316e+01 0.0000000000000000e+00 0.0000000000000000e+00 0.0000000000000000e+00 0.0000000000000000e+00  3.0823559959893697e+02 1.8777480639153958e+02 0.0000000000000000e+00 1.8777480639153958e+02 6.1507389165132722e+01 0.0000000000000000e+00 0.0000000000000000e+00 0.0000000000000000e+00 0.0000000000000000e+00  1.0530291311355708e+01 8.9615977842653919e+01 0.0000000000000000e+00 8.9615977842653919e+01 7.7390534597998037e+00 0.0000000000000000e+00 0.0000000000000000e+00 0.0000000000000000e+00 0.0000000000000000e+00  -2.4130423582688860e+00 -1.9569990595584454e+02 0.0000000000000000e+00 -1.9569990595584454e+02 -3.0677067704789934e-01 0.0000000000000000e+00 0.0000000000000000e+00 0.0000000000000000e+00 0.0000000000000000e+00  5.2502054059232028e+00 1.2714681081074396e+01 0.0000000000000000e+00 1.2714681081074396e+01 -3.0548775772720784e+01 0.0000000000000000e+00 0.0000000000000000e+00 0.0000000000000000e+00 0.0000000000000000e+00  1.6742685062260435e+01 9.1702741008244359e+01 0.0000000000000000e+00 9.1702741008244359e+01 2.1539593338675232e+01 0.0000000000000000e+00 0.0000000000000000e+00 0.0000000000000000e+00 0.0000000000000000e+00  3.0126075670410682e+01 7.9676543792006015e+01 0.0000000000000000e+00 7.9676543792006015e+01 1.3768439291246047e+01 0.0000000000000000e+00 0.0000000000000000e+00 0.0000000000000000e+00 0.0000000000000000e+00  1.8509883113998182e+01 4.6215141824937753e+01 0.0000000000000000e+00 4.6215141824937753e+01 3.4244519992155084e+01 0.0000000000000000e+00 0.0000000000000000e+00 0.0000000000000000e+00 0.0000000000000000e+00  -2.5241845605072946e+01 3.1923327249177205e+00 0.0000000000000000e+00 3.1923327249177205e+00 -1.3267309558101864e-01 0.0000000000000000e+00 0.0000000000000000e+00 0.0000000000000000e+00 0.0000000000000000e+00  -6.7603096075468310e+00 -7.5712317013043258e+00 0.0000000000000000e+00 -7.5712317013043258e+00 -9.6812316443256545e+00 0.0000000000000000e+00 0.0000000000000000e+00 0.0000000000000000e+00 0.0000000000000000e+00  3.0959242750420102e+00 2.0508937182219281e+01 0.0000000000000000e+00 2.0508937182219281e+01 3.2734106205921414e+00 0.0000000000000000e+00 0.0000000000000000e+00 0.0000000000000000e+00 0.0000000000000000e+00  1.7704926480361334e+00 1.7725205943576277e+01 0.0000000000000000e+00 1.7725205943576277e+01 1.6742161758704699e+00 0.0000000000000000e+00 0.0000000000000000e+00 0.0000000000000000e+00 0.0000000000000000e+00  2.8229537160017428e+00 1.7172072048040480e+01 0.0000000000000000e+00 1.7172072048040480e+01 3.1277378211436577e+00 0.0000000000000000e+00 0.0000000000000000e+00 0.0000000000000000e+00 0.0000000000000000e+00  -2.0681318885944209e+00 -1.4638665821635288e+00 0.0000000000000000e+00 -1.4638665821635288e+00 -4.2277107191480727e+00 0.0000000000000000e+00 0.0000000000000000e+00 0.0000000000000000e+00 0.0000000000000000e+00  3.0994701632782466e+00 -1.9712194316379509e+01 0.0000000000000000e+00 -1.9712194316379509e+01 5.4119570548549341e+00 0.0000000000000000e+00 0.0000000000000000e+00 0.0000000000000000e+00 0.0000000000000000e+00  -1.6778928502813932e+00 -1.6644595627329075e+01 0.0000000000000000e+00 -1.6644595627329075e+01 -1.9748241868227492e+00 0.0000000000000000e+00 0.0000000000000000e+00 0.0000000000000000e+00 0.0000000000000000e+00  1.2206769234484568e+01 7.9197596550705729e+00 0.0000000000000000e+00 7.9197596550705729e+00 1.2236309855810612e+01 0.0000000000000000e+00 0.0000000000000000e+00 0.0000000000000000e+00 0.0000000000000000e+00  8.2724514987417663e+00 -7.2670607788543384e-01 0.0000000000000000e+00 -7.2670607788543384e-01 8.5639826907215095e+00 0.0000000000000000e+00 0.0000000000000000e+00 0.0000000000000000e+00 0.0000000000000000e+00  -2.5014778633286561e+01 -7.7283032303183063e+01 0.0000000000000000e+00 -7.7283032303183063e+01 -1.5459363820239663e+01 0.0000000000000000e+00 0.0000000000000000e+00 0.0000000000000000e+00 0.0000000000000000e+00  1.2681024029687105e+01 -2.1240912442813634e+01 0.0000000000000000e+00 -2.1240912442813634e+01 1.2577070563315726e+01 0.0000000000000000e+00 0.0000000000000000e+00 0.000000000000