<?xml version="1.0"?>
<VTKFile type="UnstructuredGrid"  version="0.1"  >
<UnstructuredGrid>
<Piece  NumberOfPoints="4978" NumberOfCells="9630">
<Points>
<DataArray  type="Float64"  NumberOfComponents="3"  format="ascii">0 1.5 0  0 0 0  0.06190941752361886 0 0  0.06190941752361886 0.02304324263930277 0  0.07687367483109155 0.06663263502519032 0  0.1051805799723963 0.1030013474942385 0  0.1437626405485843 0.128208265731708 0  0.1884388916338735 0.1395218290209338 0  0.2343679681997119 0.1357160372315063 0  0.2765727421371398 0.117203306956754 0  0.3104796713154951 0.0859897797765535 0  0.3324144138380889 0.04545792568865569 0  0.34 0 0  0.4722134970410927 0 0  0.4722134970410927 0.02388743731615415 0  0.4894717723551502 0.0684361811740563 0  0.5216574972706967 0.1037422395464312 0  0.5644238112906292 0.1250373336124665 0  0.6119948867302293 0.1294454429183545 0  0.6579459862509499 0.1163712278761581 0  0.6960711592386857 0.08758043367405244 0  0.7212213898225662 0.04696141660432988 0  0.73 0 0  0.85 0 0  0.857341522555727 0.04635254915624212 0  0.8786474508437579 0.08816778784387098 0  0.9118322121561291 0.1213525491562421 0  0.9536474508437579 0.142658477444273 0  1 0.15 0  1.046352549156242 0.142658477444273 0  1.088167787843871 0.1213525491562421 0  1.121352549156242 0.08816778784387097 0  1.142658477444273 0.04635254915624211 0  1.15 0 0  1.461909417523619 0 0  1.461909417523619 0.02304324263930277 0  1.476873674831092 0.06663263502519032 0  1.505180579972396 0.1030013474942385 0  1.543762640548584 0.128208265731708 0  1.588438891633874 0.1395218290209338 0  1.634367968199712 0.1357160372315063 0  1.67657274213714 0.117203306956754 0  1.710479671315495 0.0859897797765535 0  1.732414413838089 0.04545792568865569 0  1.74 0 0  1.78 0 0  1.789134456098646 0.04592201188381079 0  1.815147186257614 0.08485281374238571 0  1.854077988116189 0.1108655439013544 0  1.9 0.12 0  1.945922011883811 0.1108655439013544 0  1.984852813742386 0.08485281374238569 0  2.010865543901355 0.04592201188381077 0  2.02 0 0  2.161909417523619 0 0  2.161909417523619 0.02304324263930277 0  2.176873674831092 0.06663263502519032 0  2.205180579972396 0.1030013474942385 0  2.243762640548584 0.128208265731708 0  2.288438891633873 0.1395218290209338 0  2.334367968199712 0.1357160372315063 0  2.37657274213714 0.117203306956754 0  2.410479671315495 0.0859897797765535 0  2.432414413838089 0.04545792568865569 0  2.44 0 0  2.472213497041093 0 0  2.472213497041093 0.02388743731615415 0  2.48947177235515 0.0684361811740563 0  2.521657497270697 0.1037422395464312 0  2.564423811290629 0.1250373336124665 0  2.611994886730229 0.1294454429183545 0  2.65794598625095 0.1163712278761581 0  2.696071159238686 0.08758043367405244 0  2.721221389822567 0.04696141660432988 0  2.73 0 0  3 0 0  3 1.5 0  0 0.75 0  3 0.75 0  1.5 1.5 0  0 0.375 0  0 0.1875 0  0 0.09375 0  0.75 1.5 0  2.25 1.5 0  1.137279452465634 0.8667483509386543 0  2.055384907633385 0.8149748422668953 0  0.5545701656450307 0.9454298343549693 0  2.545804583542266 1.045804583542266 0  2.462951104370831 0.5854482317237805 0  1.6063536999151 1.018574336065804 0  0.7683179692414909 0.5511078775270282 0  1.647896012796697 0.5780189144999826 0  1.875 1.5 0  0.3683226130580748 0.5893782185394094 0  0.375 1.5 0  0 1.125 0  3 0.375 0  1.125 1.5 0  3 1.125 0  2.625 1.5 0  1.247216233241016 0.4851891764902285 0  0.8779404074027722 1.143194262378568 0  1.992337703792022 0.4642129848858538 0  2.200035536160075 1.144037289792772 0  1.3125 1.206118267007311 0  1.882280687299076 1.18026905614258 0  0.8375010042452264 0.8437030129736524 0  0.2703628106324028 0.8673582108832857 0  0.336944444033578 1.181320038574892 0  1.424720841531434 0.7792108746582741 0  2.763716218670896 0.5625 0  0.6112325230261646 1.216037756380734 0  2.429292395855053 1.293345775631689 0  2.798691155259055 0.9375 0  2.340750225085827 0.8450755885956063 0  2.74506315455788 1.24506315455788 0  0.4115012634770826 0.3359864655288552 0  1.6875 1.5 0  1.553212834656815 1.259295117559057 0  1.783849920010049 0.8130750647527071 0  2.590242300399914 0.800172794523538 0  2.206538789959823 0.6067588023913982 0  1.022769083327432 0.627137676743421 0  2.0625 1.5 0  2.566013274303806 0.3667751817948443 0  2.317230353528816 0.3853650267397287 0  0.9546600707351991 0.3912757388497677 0  1.76490060939521 0.3540000691256479 0  1.398169292756645 0.3089248951275104 0  0.1875 1.5 0  0.6961815191548208 0.3380429757712475 0  0.6390751493076395 0.7361434669345621 0  1.385952842918209 0.9972233609662619 0  1.082019261833385 1.265823315390121 0  2.784258672215756 0.3048233224522298 0  0 0.5625 0  0.2130557952202133 0.4325455696870932 0  2.110276358430479 0.2903936515686117 0  0 1.3125 0  0.5618175915722093 0.5022778936897083 0  1.438605690073396 0.5702366817214194 0  1.851778102902867 0.6169409446553686 0  0.9375 1.5 0  1.918499765346388 0.9737703250858507 0  1.066617221574711 1.060327143126178 0  0.17830064634795 0.65625 0  1.139464543633635 0.3182162642668528 0  1.214887260891528 0.6824917486258804 0  0.4470960700565646 0.7803305254813445 0  2.056073894593081 1.292965518236122 0  0.7800417460951754 1.309431349558015 0  0.7102942521579887 1.054059105222724 0  2.772203778896419 0.7508393899039921 0  3 0.9375 0  2.4375 1.5 0  0.5625 1.5 0  3 0.5625 0  1.3125 1.5 0  0 0.9375 0  3 1.3125 0  2.8125 1.5 0  3 0.1875 0  1.74009613212014 1.312845810865967 0  0.1858279553328271 1.04932632064409 0  1.582414108002925 0.3243096672004901 0  0.4576542986122824 1.328517530191622 0  1.30595470876181 0 0  0.1616828829631953 1.229471150973137 0  1.600689448835705 0.8342777580615786 0  2.184954406689295 0.9543424310663166 0  2.356848459734244 1.033731425282726 0  2.249618867339344 1.318565528322325 0  2.031012140730151 0.6383085966483963 0  1.264473591492607 0.1926369230867345 0  1.93294708275428 0.2969945700235964 0  1.406271966518558 1.353045118606616 0  0.2855042944080262 1.351202341158466 0  2.163692386827529 0.4469681835123645 0  2.058709899218631 1.05982604745508 0  1.21875 1.361760465218127 0  1.232585115983139 1.060656719142284 0  1.682328919476849 1.161572426192166 0  0.4864612871934715 1.100927295036068 0  2.842393003195402 0.1547034389615206 0  1.901710724058898 1.340659870484523 0  2.578488906869203 1.212378831230944 0  0.346730023619794 1.013455011579226 0  1.758789788261688 0.970834021568154 0  0.9209577900333827 0.984909924281538 0  2.461973640748163 0.2490632223012221 0  2.833434714842781 1.102015011431888 0  1.485476187845101 1.118115752354218 0  0.7869575052851041 0.2127716822913992 0  1.091585464669657 0.4673676525872368 0  0.9308375558444295 1.286291202675726 0  2.609275627299536 0.5207885309723005 0  2.859418780372727 0.4404724026784034 0  0.1368795735450182 0.2913992261536034 0  0.5088670694303536 0.6431238265444117 0  0.9924988599062848 0.7887715626383616 0  0.8674753477047706 0.6821390867986818 0  0.6993572585883594 0.9038049302516018 0  1.53924450853783 0.6818717864694561 0  1.27954362181495 0.818196911265721 0  2.885754890315292 0.65625 0  0.1199579452929171 0.84375 0  0.3101130847613819 0.7251157056441525 0  2.683488575489726 1.10528265125029 0  2.637912450120847 1.350340704724588 0  0.65625 1.387568746661148 0  2.204969505432462 0.7645924845263576 0  2.34230217156612 0.6870332922078795 0  2.458336421316689 0.930056573232228 0  1.547170662421109 0.4687109428674099 0  0.55426355401875 0.2785752421136156 0  1.927690911684502 0.7425770788416013 0  2.650983472818039 0.6639703826486528 0  0.2807744135836687 0.2731407085328489 0  2.697063502273202 0.4130460425434029 0  1.768721210125562 0.4985606178023466 0  1.59375 1.394491048145999 0  1.03125 1.39617417476255 0  2.649124789533757 0.9376608889715211 0  2.899345577629528 0.84375 0  2.448792339301353 1.151333513094988 0  2.455516477512143 0.7671738041202795 0  0.1479512725554237 1.367277900867101 0  1.733007556765436 0.6856365299097277 0  2.865 0 0  0.407900401917371 0.1920322062602331 0  1.482893533441057 0.9020086108979886 0  2.902194538181383 1.21875 0  2.860324471164851 1.360324471164851 0  0.9128790560808855 0.5311054613533476 0  0.7396036279203969 1.183264973390871 0  1.379392725427689 0.4456149894503371 0  0.8305263666170877 0.339868595109382 0  2.352639297837627 1.399880277695907 0  2.15625 1.5 0  2.32277762299786 1.203473773731512 0  1.818471673600783 0.235727380341035 0  1.269129800285538 0.3222823294390822 0  2.329228807632851 0.5297324129610972 0  0.430777275012463 0.469645907614299 0  1.390502090335328 0.1630587681988043 0  1.149408636841162 1.157447166816889 0  1.687853147042319 0.2519031106491252 0  0.3941048876243997 0.8956837842542459 0  1.877835046604575 0.410724628626283 0  1.348230251479045 0.6691802479050837 0  2.336954765206726 0.2613063289913201 0  2.514033953321691 1.393470229958569 0  0 0.46875 0  0.1287800079303892 0.5340043503292357 0  2.441328451749267 0.3721441168812449 0  0.9333932382689634 0.2670516659043625 0  1.13959172768211 0.5827503401695603 0  0.8703665929291606 1.395134656069543 0  1.240468926246127 0.9364063612525604 0  1.433475419570003 1.229904687600933 0  1.020534477629395 0.9101139083191684 0  1.108777781305164 0.7462713331880694 0  0.6468125623079457 0.6038935958199032 0  1.665312060212151 0.428962863572448 0  0.2512528931669099 0.5500044694745148 0  2.66971919386773 0.2450375495263612 0  2.901855502368762 0.2640467328343441 0  2.063534245742155 0.9373123558679215 0  2.031795413587333 0.1972457754676831 0  1.836924180675512 1.065887991891963 0  1.001601941364679 1.16852535211421 0  0.8051266927803291 0.9581030042697194 0  0.7620228346493961 0.7461373576581022 0  3 1.03125 0  2.084817260746984 1.176705869274554 0  2.085981885570153 0.5347538843754811 0  1.496744890324478 0.239335226969819 0  1.894594308711337 0.8570406362709689 0  1.78125 1.5 0  2.109375 1.394928085212741 0  2.71875 1.5 0  0.4943575340553394 1.217544978302146 0  0.5937185858435849 1.055241883498284 0  2.227680725187669 0.3075299344665331 0  0.5158109084499103 0.3891628929402524 0  1.96875 1.5 0  0.6036564600183
[...]
<PointData  Tensors="f_1214"> 
<DataArray  type="Float64"  Name="f_1214"  NumberOfComponents="9" format="ascii">-5.3408027211416957e+00 -4.0740032204418517e+00 0.0000000000000000e+00 -4.0740032204418517e+00 -1.2903920799762510e+01 0.0000000000000000e+00 0.0000000000000000e+00 0.0000000000000000e+00 0.0000000000000000e+00  3.4878152824523823e+01 3.1164619621609888e+00 0.0000000000000000e+00 3.1164619621609888e+00 2.6567047441320881e+01 0.0000000000000000e+00 0.0000000000000000e+00 0.0000000000000000e+00 0.0000000000000000e+00  2.2994605033909760e+01 3.5296488797659773e+00 0.0000000000000000e+00 3.5296488797659773e+00 3.0191588751764090e+01 0.0000000000000000e+00 0.0000000000000000e+00 0.0000000000000000e+00 0.0000000000000000e+00  5.2165967937011118e+01 1.8843695908994956e+01 0.0000000000000000e+00 1.8843695908994956e+01 9.7697213034427310e+00 0.0000000000000000e+00 0.0000000000000000e+00 0.0000000000000000e+00 0.0000000000000000e+00  8.4825676079940010e+01 1.5475894580277604e+01 0.0000000000000000e+00 1.5475894580277604e+01 -4.2939311441074317e+01 0.0000000000000000e+00 0.0000000000000000e+00 0.0000000000000000e+00 0.0000000000000000e+00  1.2453192617838097e+02 -4.3533967298365246e+00 0.0000000000000000e+00 -4.3533967298365246e+00 -7.4200684674288979e+01 0.0000000000000000e+00 0.0000000000000000e+00 0.0000000000000000e+00 0.0000000000000000e+00  8.0607324176694476e+01 -1.7517214640244600e+01 0.0000000000000000e+00 -1.7517214640244600e+01 -2.5625743133769955e+01 0.0000000000000000e+00 0.0000000000000000e+00 0.0000000000000000e+00 0.0000000000000000e+00  3.9566453256485140e+01 5.7626793189393645e+01 0.0000000000000000e+00 5.7626793189393645e+01 1.4864816240929731e+01 0.0000000000000000e+00 0.0000000000000000e+00 0.0000000000000000e+00 0.0000000000000000e+00  4.8995205174062235e+01 8.5076314302779352e+01 0.0000000000000000e+00 8.5076314302779352e+01 -7.4934062648336592e+00 0.0000000000000000e+00 0.0000000000000000e+00 0.0000000000000000e+00 0.0000000000000000e+00  7.8273071852369389e+00 1.5136170090572087e+01 0.0000000000000000e+00 1.5136170090572087e+01 6.4861314872180188e+01 0.0000000000000000e+00 0.0000000000000000e+00 0.0000000000000000e+00 0.0000000000000000e+00  -1.1232840697356900e+02 6.5089710442087181e+01 0.0000000000000000e+00 6.5089710442087181e+01 1.4731812462010032e+02 0.0000000000000000e+00 0.0000000000000000e+00 0.0000000000000000e+00 0.0000000000000000e+00  -9.7385432178808202e+01 1.1822659877302861e+02 0.0000000000000000e+00 1.1822659877302861e+02 1.3768235322640695e+02 0.0000000000000000e+00 0.0000000000000000e+00 0.0000000000000000e+00 0.0000000000000000e+00  2.8939849025819488e+01 9.8617815940029292e+00 0.0000000000000000e+00 9.8617815940029292e+00 4.3496068373732363e+01 0.0000000000000000e+00 0.0000000000000000e+00 0.0000000000000000e+00 0.0000000000000000e+00  2.6012862511524254e+01 -1.2501636876416615e+00 0.0000000000000000e+00 -1.2501636876416611e+00 1.6658550478455886e+01 0.0000000000000000e+00 0.0000000000000000e+00 0.0000000000000000e+00 0.0000000000000000e+00  4.7770963208783535e+01 1.7568344424480273e+01 0.0000000000000000e+00 1.7568344424480273e+01 6.6087958801320639e+00 0.0000000000000000e+00 0.0000000000000000e+00 0.0000000000000000e+00 0.0000000000000000e+00  3.3788474770605127e+01 2.3241817438718460e+01 0.0000000000000000e+00 2.3241817438718453e+01 1.3816224307172646e+01 0.0000000000000000e+00 0.0000000000000000e+00 0.0000000000000000e+00 0.0000000000000000e+00  -5.9763450211223471e+01 3.2544861495171048e+01 0.0000000000000000e+00 3.2544861495171048e+01 1.1948800986279591e+02 0.0000000000000000e+00 0.0000000000000000e+00 0.0000000000000000e+00 0.0000000000000000e+00  -4.7523644799887123e+01 7.6528153366874037e+01 0.0000000000000000e+00 7.6528153366874037e+01 1.0084471240623624e+02 0.0000000000000000e+00 0.0000000000000000e+00 0.0000000000000000e+00 0.0000000000000000e+00  2.2945864380015517e+00 -6.4526024583921249e+00 0.0000000000000000e+00 -6.4526024583921249e+00 7.0685480933095647e+01 0.0000000000000000e+00 0.0000000000000000e+00 0.0000000000000000e+00 0.0000000000000000e+00  -7.0487120798602106e+01 -7.0502395548267401e+01 0.0000000000000000e+00 -7.0502395548267401e+01 1.2893840457503316e+02 0.0000000000000000e+00 0.0000000000000000e+00 0.0000000000000000e+00 0.0000000000000000e+00  -8.7590150558871671e-01 -2.3640430549552793e+01 0.0000000000000000e+00 -2.3640430549552793e+01 4.6121580363286142e+01 0.0000000000000000e+00 0.0000000000000000e+00 0.0000000000000000e+00 0.0000000000000000e+00  4.6071545523878378e+01 -2.6325831716915410e+01 0.0000000000000000e+00 -2.6325831716915410e+01 -3.7852684954569388e-01 0.0000000000000000e+00 0.0000000000000000e+00 0.0000000000000000e+00 0.0000000000000000e+00  2.8638702755560292e+01 4.7528471693469516e+00 0.0000000000000000e+00 4.7528471693469516e+00 1.8986860813293454e+01 0.0000000000000000e+00 0.0000000000000000e+00 0.0000000000000000e+00 0.0000000000000000e+00  -4.9961841311389330e+00 -2.3028946320591000e+01 0.0000000000000000e+00 -2.3028946320591000e+01 7.5883544502763471e+01 0.0000000000000000e+00 0.0000000000000000e+00 0.0000000000000000e+00 0.0000000000000000e+00  -5.7007099136526932e+01 -1.0241594433920378e+02 0.0000000000000000e+00 -1.0241594433920378e+02 1.0379046309218684e+02 0.0000000000000000e+00 0.0000000000000000e+00 0.0000000000000000e+00 0.0000000000000000e+00  -1.3258759230549197e+02 -5.5303393298822819e+01 0.0000000000000000e+00 -5.5303393298822819e+01 1.5840670498760554e+02 0.0000000000000000e+00 0.0000000000000000e+00 0.0000000000000000e+00 0.0000000000000000e+00  -5.9187271771663276e+01 -2.7997930254403762e+01 0.0000000000000000e+00 -2.7997930254403762e+01 1.0947449965364808e+02 0.0000000000000000e+00 0.0000000000000000e+00 0.0000000000000000e+00 0.0000000000000000e+00  2.5900802796283166e+01 -5.6292288978800883e+01 0.0000000000000000e+00 -5.6292288978800883e+01 1.8983573739659494e+01 0.0000000000000000e+00 0.0000000000000000e+00 0.0000000000000000e+00 0.0000000000000000e+00  2.3567839098627708e+01 -6.8782215326058534e+01 0.0000000000000000e+00 -6.8782215326058534e+01 7.3956899460446035e+00 0.0000000000000000e+00 0.0000000000000000e+00 0.0000000000000000e+00 0.0000000000000000e+00  6.0511214878393176e+01 1.6798366966458889e+01 0.0000000000000000e+00 1.6798366966458889e+01 -1.6063604747623891e+01 0.0000000000000000e+00 0.0000000000000000e+00 0.0000000000000000e+00 0.0000000000000000e+00  1.1732881360142515e+02 4.0062289717719302e+01 0.0000000000000000e+00 4.0062289717719302e+01 -8.1524882268938754e+01 0.0000000000000000e+00 0.0000000000000000e+00 0.0000000000000000e+00 0.0000000000000000e+00  8.8536940992637696e+01 -3.1388286456393719e+00 0.0000000000000000e+00 -3.1388286456393719e+00 -4.0962217352259657e+01 0.0000000000000000e+00 0.0000000000000000e+00 0.0000000000000000e+00 0.0000000000000000e+00  3.4489374728494646e+01 -1.1342306949144115e+01 0.0000000000000000e+00 -1.1342306949144115e+01 1.2852069056239966e+01 0.0000000000000000e+00 0.0000000000000000e+00 0.0000000000000000e+00 0.0000000000000000e+00  2.2205575379885854e+01 -1.0218774951649603e+00 0.0000000000000000e+00 -1.0218774951649603e+00 1.6109864099153107e+01 0.0000000000000000e+00 0.0000000000000000e+00 0.0000000000000000e+00 0.0000000000000000e+00  2.1286717081454427e+01 -9.4371770720739512e-01 0.0000000000000000e+00 -9.4371770720739512e-01 2.6123447898245736e+01 0.0000000000000000e+00 0.0000000000000000e+00 0.0000000000000000e+00 0.0000000000000000e+00  -5.7502468424452090e+01 -4.2003807359843073e+01 0.0000000000000000e+00 -4.2003807359843073e+01 9.1907237265755768e+01 0.0000000000000000e+00 0.0000000000000000e+00 0.0000000000000000e+00 0.0000000000000000e+00  -7.6942033224409968e+01 -8.3159313735588611e+01 0.0000000000000000e+00 -8.3159313735588611e+01 1.0615770105318875e+02 0.0000000000000000e+00 0.0000000000000000e+00 0.0000000000000000e+00 0.0000000000000000e+00  -7.2896779925305097e+01 -3.8734889537630153e+01 0.0000000000000000e+00 -3.8734889537630153e+01 1.0917673909031942e+02 0.0000000000000000e+00 0.0000000000000000e+00 0.0000000000000000e+00 0.0000000000000000e+00  1.8024530142132260e+01 -3.8778337527862774e+01 0.0000000000000000e+00 -3.8778337527862774e+01 2.4330563559792889e+01 0.0000000000000000e+00 0.0000000000000000e+00 0.0000000000000000e+00 0.0000000000000000e+00  2.0025116688855199e+01 -8.9415712966026490e+01 0.0000000000000000e+00 -8.9415712966026490e+01 -7.9241202094059844e+00 0.0000000000000000e+00 0.0000000000000000e+00 0.0000000000000000e+00 0.0000000000000000e+00  6.5007435058134789e+01 5.6573137426166198e-01 0.0000000000000000e+00 5.6573137426166198e-01 -2.3966216129250910e+01 0.0000000000000000e+00 0.0000000000000000e+00 0.0000000000000000e+00 0.0000000000000000e+00  1.3712950974385561e+02 5.4107191059443764e+01 0.0000000000000000e+00 5.4107191059443764e+01 -9.3609899898869102e+01 0.0000000000000000e+00 0.0000000000000000e+00 0.0000000000000000e+00 0.0000000000000000e+00  1.2268512750640777e+02 -7.0776176495345791e+00 0.0000000000000000e+00 -7.0776176495345791e+00 -7.7380041003714140e+01 0.0000000000000000e+00 0.0000000000000000e+00 0.0000000000000000e+00 0.0000000000000000e+00  4.2768963260089613e+01 -2.8472081640947838e+01 0.0000000000000000e+00 -2.8472081640947838e+01 -5.1877572014573934e+00 0.0000000000000000e+00 0.0000000000000000e+00 0.0000000000000000e+00 0.0000000000000000e+00  2.7098058508905943e+01 -4.3448188656771602e+00 0.0000000000000000e+00 -4.3448188656771602e+00 7.3593669468754221e+00 0.0000000000000000e+00 0.0000000000000000e+00 0.0000000000000000e+00 0.0000000000000000e+00  1.3812058629675835e+01 -3.7103117575579314e+00 0.0000000000000000e+00 -3.7103117575579305e+00 4.2771196798642691e+01 0.0000000000000000e+00 0.0000000000000000e+00 0.0000000000000000e+00 0.0000000000000000e+00  -1.4898880370790488e+01 -1.9365165607788136e+01 0.0000000000000000e+00 -1.9365165607788136e+01 5.3463347728044226e+01 0.0000000000000000e+00 0.0000000000000000e+00 0.0000000000000000e+00 0.0000000000000000e+00  -2.4991348424286695e+01 -2.1299610295644861e+01 0.0000000000000000e+00 -2.1299610295644861e+01 6.5487709577982457e+01 0.0000000000000000e+00 0.0000000000000000e+00 0.0000000000000000e+00 0.0000000000000000e+00  3.5752522561471679e+01 -7.3706210371057168e+01 0.0000000000000000e+00 -7.3706210371057168e+01 1.0420123382665205e+01 0.0000000000000000e+00 0.0000000000000000e+00 0.0000000000000000e+00 0.0000000000000000e+00  1.5525371029447353e+01 -1.0493917097080974e+02 0.0000000000000000e+00 -1.0493917097080974e+02 -7.5643897188001850e+00 0.0000000000000000e+00 0.0000000000000000e+00 0.0000000000000000e+00 0.0000000000000000e+00  8.7836468732787225e+01 1.0878831782819800e+01 0.0000000000000000e+00 1.0878831782819800e+01 -5.1707688104069327e+01 0.0000000000000000e+00 0.0000000000000000e+00 0.0000000000000000e+00 0.0000000000000000e+00  1.3884971005555778e+02 2.0294148408345158e+01 0.0000000000000000e+00 2.0294148408345158e+01 -1.0420863976261077e+02 0.0000000000000000e+00 0.0000000000000000e+00 0.0000000000000000e+00 0.0000000000000000e+00  8.8505557177358483e+01 -4.9379416145626365e+01 0.0000000000000000e+00 -4.9379416145626365e+01 -5.2032529189915977e+01 0.0000000000000000e+00 0.0000000000000000e+00 0.0000000000000000e+00 0.0000000000000000e+00  9.3643778394055204e+00 -9.9849349041221807e+00 0.0000000000000000e+00 -9.9849349041221807e+00 1.7873543294605572e+01 0.0000000000000000e+00 0.0000000000000000e+00 0.0000000000000000e+00 0.0000000000000000e+00  2.6892274028129698e+01 -5.1999753194818963e+00 0.0000000000000000e+00 -5.1999753194818963e+00 7.7539886081923539e+00 0.0000000000000000e+00 0.0000000000000000e+00 0.0000000000000000e+00 0.0000000000000000e+00  3.9031254878534760e+01 2.3821219619398345e+01 0.0000000000000000e+00 2.3821219619398345e+01 -4.6329983298103077e+00 0.0000000000000000e+00 0.0000000000000000e+00 0.0000000000000000e+00 0.0000000000000000e+00  7.4116822280369547e+01 2.4171078682247025e+01 0.0000000000000000e+00 2.4171078682247025e+01 -4.5974253412690473e+01 0.0000000000000000e+00 0.0000000000000000e+00 0.0000000000000000e+00 0.0000000000000000e+00  1.2052620134046309e+02 -2.7510126339543074e+01 0.0000000000000000e+00 -2.7510126339543074e+01 -1.0355651931401700e+02 0.0000000000000000e+00 0.0000000000000000e+00 0.0000000000000000e+00 0.0000000000000000e+00  1.1242228526967547e+02 -4.4937185102828188e+01 0.0000000000000000e+00 -4.4937185102828188e+01 -7.8283173300073940e+01 0.0000000000000000e+00 0.0000000000000000e+00 0.0000000000000000e+00 0.0000000000000000e+00  2.4915733268899114e+01 4.5478245019250522e+01 0.0000000000000000e+00 4.5478245019250522e+01 6.0596150315286401e-01 0.0000000000000000e+00 0.0000000000000000e+00 0.0000000000000000e+00 0.0000000000000000e+00  1.2573048169196470e+01 4.1167081800417890e+01 0.0000000000000000e+00 4.1167081800417890e+01 1.9091046257461691e+01 0.0000000000000000e+00 0.0000000000000000e+00 0.0000000000000000e+00 0.0000000000000000e+00  -4.6322448714037819e+01 -4.4283512193253154e+00 0.0000000000000000e+00 -4.4283512193253154e+00 7.9701184418781267e+01 0.0000000000000000e+00 0.0000000000000000e+00 0.0000000000000000e+00 0.0000000000000000e+00  -1.1931700235422068e+02 4.4676211868039438e+01 0.0000000000000000e+00 4.4676211868039438e+01 1.4073264780381791e+02 0.0000000000000000e+00 0.0000000000000000e+00 0.0000000000000000e+00 0.0000000000000000e+00  -3.3076559620871961e+01 3.1135173176249008e+01 0.0000000000000000e+00 3.1135173176249008e+01 6.1235014839312058e+01 0.0000000000000000e+00 0.0000000000000000e+00 0.0000000000000000e+00 0.0000000000000000e+00  1.0366473405156626e+01 -1.9847081095504944e+00 0.0000000000000000e+00 -1.9847081095504944e+00 2.5894942479470302e+01 0.0000000000000000e+00 0.0000000000000000e+00 0.0000000000000000e+00 0.0000000000000000e+00  1.4398162702292902e+01 9.3801668961912310e-01 0.0000000000000000e+00 9.3801668961912310e-01 1.5611579977708471e+01 0.0000000000000000e+00 0.0000000000000000e+00 0.0000000000000000e+00 0.0000000000000000e+00  2.4161206403124524e+01 9.8059254185616194e+00 0.0000000000000000e+00 9.8059254185616194e+00 4.0519504357073238e-01 0.0000000000000000e+00 0.0000000000000000e+00 0.0000000000000000e+00 0.0000000000000000e+00  9.1467695210489183e+01 1.0055817737288292e+01 0.0000000000000000e+00 1.0055817737288292e+01 -6.0910069964515863e+01 0.0000000000000000e+00 0.0000000000000000e+00 0.0000000000000000e+00 0.0000000000000000e+00  1.3069963478031622e+02 -6.2018908072437199e+01 0.0000000000000000e+00 -6.2018908072437199e+01 -1.3144464321043827e+02 0.0000000000000000e+00 0.0000000000000000e+00 0.0000000000000000e+00 0.0000000000000000e+00  5.5341658860509334e+01 -4.3054381825385619e+01 0.0000000000000000e+00 -4.3054381825385619e+01 -4.5792621732741637e+01 0.0000000000000000e+00 0.0000000000000000e+00 0.0000000000000000e+00 0.0000000000000000e+00  1.9086198966431065e+00 -1.7536726133839338e+01 0.0000000000000000e+00 -1.7536726133839338e+01 1.3619175959200883e+01 0.0000000000000000e+00 0.0000000000000000e+00 0.0000000000000000e+00 0.0000000000000000e+00  -6.8261439280036427e+01 -3.8975000774253893e+01 0.0000000000000000e+00 -3.8975000774253893e+01 1.1396334518741068e+02 0.0000000000000000e+00 0.0000000000000000e+00 0.0000000000000000e+00 0.0000000000000000e+00  -2.0280326331289947e+02 4.8851194493238900e+01 0.0000000000000000e+00 4.8851194493238900e+01 2.1187878943164080e+02 0.0000000000000000e+00 0.0000000000000000e+00 0.0000000000000000e+00 0.0000000000000000e+00  -1.2491073523553901e+02 1.6501724584537524e+02 0.0000000000000000e+00 1.6501724584537524e+02 1.4239170248342577e+02 0.0000000000000000e+00 0.0000000000000000e+00 0.0000000000000000e+00 0.0000000000000000e+00  -9.0487989284178325e-02 -9.1437580044745648e+00 0.0000000000000000e+00 -9.1437580044745648e+00 2.5109806924656365e+01 0.0000000000000000e+00 0.0000000000000000e+00 0.0000000000000000e+00 0.0000000000000000e+00  -1.3986748620637283e+02 1.0628285724149070e+02 0.0000000000000000e+00 1.0628285724149070e+02 4.4681946597617230e+00 0.0000000000000000e+00 0.0000000000000000e+00 0.0000000000000000e+00 0.0000000000000000e+00  3.6953764252302290e+02 2.2350892566042074e+02 0.0000000000000000e+00 2.2350892566042074e+02 6.2805734333474909e+01 0.0000000000000000e+00 0.0000000000000000e+00 0.0000000000000000e+00 0.0000000000000000e+00  9.3453483209232857e+00 1.1625115857149311e+02 0.0000000000000000e+00 1.1625115857149311e+02 7.5418258467012640e+00 0.0000000000000000e+00 0.0000000000000000e+00 0.0000000000000000e+00 0.0000000000000000e+00  -5.1872953694645680e+00 -2.4658403336178031e+02 0.0000000000000000e+00 -2.4658403336178031e+02 2.6131798651566065e+00 0.0000000000000000e+00 0.0000000000000000e+00 0.0000000000000000e+00 0.0000000000000000e+00  1.0558624163065360e+01 1.5855546191482109e+01 0.0000000000000000e+00 1.5855546191482109e+01 -2.9912048397535404e+01 0.0000000000000000e+00 0.0000000000000000e+00 0.0000000000000000e+00 0.0000000000000000e+00  1.6734734870887063e+01 1.2066456239391002e+02 0.0000000000000000e+00 1.2066456239391002e+02 2.0250186567029054e+01 0.0000000000000000e+00 0.0000000000000000e+00 0.0000000000000000e+00 0.0000000000000000e+00  3.1777334296956109e+01 1.1198806832063701e+02 0.0000000000000000e+00 1.1198806832063701e+02 9.7246226191830161e+00 0.0000000000000000e+00 0.0000000000000000e+00 0.0000000000000000e+00 0.0000000000000000e+00  1.5327242470156486e+01 6.4996940551390551e+01 0.0000000000000000e+00 6.4996940551390551e+01 3.4920624232685086e+01 0.0000000000000000e+00 0.0000000000000000e+00 0.0000000000000000e+00 0.0000000000000000e+00  -2.5112829115352721e+01 1.0150956158463689e+01 0.0000000000000000e+00 1.0150956158463689e+01 1.8349382605418598e+00 0.0000000000000000e+00 0.0000000000000000e+00 0.0000000000000000e+00 0.0000000000000000e+00  -7.7800486192733862e+00 -1.1132929417862249e+01 0.0000000000000000e+00 -1.1132929417862249e+01 -1.3636669185032353e+01 0.0000000000000000e+00 0.0000000000000000e+00 0.0000000000000000e+00 0.0000000000000000e+00  2.5148847200491700e+00 3.0441279705431651e+01 0.0000000000000000e+00 3.0441279705431651e+01 3.0872471144115354e+00 0.0000000000000000e+00 0.0000000000000000e+00 0.0000000000000000e+00 0.0000000000000000e+00  1.5678681796550722e+00 2.6395047398845769e+01 0.0000000000000000e+00 2.6395047398845769e+01 1.0995126189958693e+00 0.0000000000000000e+00 0.0000000000000000e+00 0.0000000000000000e+00 0.0000000000000000e+00  2.2369072753254580e+00 2.5435566835888629e+01 0.0000000000000000e+00 2.5435566835888629e+01 2.9296254213885726e+00 0.0000000000000000e+00 0.0000000000000000e+00 0.0000000000000000e+00 0.0000000000000000e+00  -2.1441939251086701e+00 -4.2710291868886401e+00 0.0000000000000000e+00 -4.2710291868886401e+00 -4.9637578387529873e+00 0.0000000000000000e+00 0.0000000000000000e+00 0.0000000000000000e+00 0.0000000000000000e+00  1.5807868310325417e+00 -2.9478145806327110e+01 0.0000000000000000e+00 -2.9478145806327110e+01 6.3550167013311851e+00 0.0000000000000000e+00 0.0000000000000000e+00 0.0000000000000000e+00 0.0000000000000000e+00  -1.9473234582075076e+00 -2.4687734143165532e+01 0.0000000000000000e+00 -2.4687734143165532e+01 -2.5209992897451738e+00 0.0000000000000000e+00 0.0000000000000000e+00 0.0000000000000000e+00 0.0000000000000000e+00  1.1787003761220097e+01 1.1525603813974662e+01 0.0000000000000000e+00 1.1525603813974662e+01 1.1799493360868750e+01 0.0000000000000000e+00 0.0000000000000000e+00 0.0000000000000000e+00 0.0000000000000000e+00  7.8052481375635194e+00 -1.1495901271074804e+00 0.0000000000000000e+00 -1.1495901271074804e+00 8.2284469395403494e+00 0.0000000000000000e+00 0.0000000000000000e+00 0.0000000000000000e+00 0.0000000000000000e+00  -3.0487361183588302e+01 -1.0495660325397836e+02 0.0000000000000000e+00 -1.0495660325397836e+02 -1.3378147640874959e+01 0.0000000000000000e+00 0.0000000000000000e+00 0.0000000000000000e+00 0.0000000000000000e+00  1.2435977170700227e+01 -3.1542706907672148e+01 0.0000000000000000e+00 -3.1542706907672148e+01 1.2140238428626906e+01 0.0000000000000000e+00 0.0000000000000000e+00 0.00000000000