<?xml version="1.0"?>
<VTKFile type="UnstructuredGrid"  version="0.1"  >
<UnstructuredGrid>
<Piece  NumberOfPoints="4978" NumberOfCells="9630">
<Points>
<DataArray  type="Float64"  NumberOfComponents="3"  format="ascii">0 1.5 0  0 0 0  0.06190941752361886 0 0  0.06190941752361886 0.02304324263930277 0  0.07687367483109155 0.06663263502519032 0  0.1051805799723963 0.1030013474942385 0  0.1437626405485843 0.128208265731708 0  0.1884388916338735 0.1395218290209338 0  0.2343679681997119 0.1357160372315063 0  0.2765727421371398 0.117203306956754 0  0.3104796713154951 0.0859897797765535 0  0.3324144138380889 0.04545792568865569 0  0.34 0 0  0.4722134970410927 0 0  0.4722134970410927 0.02388743731615415 0  0.4894717723551502 0.0684361811740563 0  0.5216574972706967 0.1037422395464312 0  0.5644238112906292 0.1250373336124665 0  0.6119948867302293 0.1294454429183545 0  0.6579459862509499 0.1163712278761581 0  0.6960711592386857 0.08758043367405244 0  0.7212213898225662 0.04696141660432988 0  0.73 0 0  0.85 0 0  0.857341522555727 0.04635254915624212 0  0.8786474508437579 0.08816778784387098 0  0.9118322121561291 0.1213525491562421 0  0.9536474508437579 0.142658477444273 0  1 0.15 0  1.046352549156242 0.142658477444273 0  1.088167787843871 0.1213525491562421 0  1.121352549156242 0.08816778784387097 0  1.142658477444273 0.04635254915624211 0  1.15 0 0  1.461909417523619 0 0  1.461909417523619 0.02304324263930277 0  1.476873674831092 0.06663263502519032 0  1.505180579972396 0.1030013474942385 0  1.543762640548584 0.128208265731708 0  1.588438891633874 0.1395218290209338 0  1.634367968199712 0.1357160372315063 0  1.67657274213714 0.117203306956754 0  1.710479671315495 0.0859897797765535 0  1.732414413838089 0.04545792568865569 0  1.74 0 0  1.78 0 0  1.789134456098646 0.04592201188381079 0  1.815147186257614 0.08485281374238571 0  1.854077988116189 0.1108655439013544 0  1.9 0.12 0  1.945922011883811 0.1108655439013544 0  1.984852813742386 0.08485281374238569 0  2.010865543901355 0.04592201188381077 0  2.02 0 0  2.161909417523619 0 0  2.161909417523619 0.02304324263930277 0  2.176873674831092 0.06663263502519032 0  2.205180579972396 0.1030013474942385 0  2.243762640548584 0.128208265731708 0  2.288438891633873 0.1395218290209338 0  2.334367968199712 0.1357160372315063 0  2.37657274213714 0.117203306956754 0  2.410479671315495 0.0859897797765535 0  2.432414413838089 0.04545792568865569 0  2.44 0 0  2.472213497041093 0 0  2.472213497041093 0.02388743731615415 0  2.48947177235515 0.0684361811740563 0  2.521657497270697 0.1037422395464312 0  2.564423811290629 0.1250373336124665 0  2.611994886730229 0.1294454429183545 0  2.65794598625095 0.1163712278761581 0  2.696071159238686 0.08758043367405244 0  2.721221389822567 0.04696141660432988 0  2.73 0 0  3 0 0  3 1.5 0  0 0.75 0  3 0.75 0  1.5 1.5 0  0 0.375 0  0 0.1875 0  0 0.09375 0  0.75 1.5 0  2.25 1.5 0  1.137279452465634 0.8667483509386543 0  2.055384907633385 0.8149748422668953 0  0.5545701656450307 0.9454298343549693 0  2.545804583542266 1.045804583542266 0  2.462951104370831 0.5854482317237805 0  1.6063536999151 1.018574336065804 0  0.7683179692414909 0.5511078775270282 0  1.647896012796697 0.5780189144999826 0  1.875 1.5 0  0.3683226130580748 0.5893782185394094 0  0.375 1.5 0  0 1.125 0  3 0.375 0  1.125 1.5 0  3 1.125 0  2.625 1.5 0  1.247216233241016 0.4851891764902285 0  0.8779404074027722 1.143194262378568 0  1.992337703792022 0.4642129848858538 0  2.200035536160075 1.144037289792772 0  1.3125 1.206118267007311 0  1.882280687299076 1.18026905614258 0  0.8375010042452264 0.8437030129736524 0  0.2703628106324028 0.8673582108832857 0  0.336944444033578 1.181320038574892 0  1.424720841531434 0.7792108746582741 0  2.763716218670896 0.5625 0  0.6112325230261646 1.216037756380734 0  2.429292395855053 1.293345775631689 0  2.798691155259055 0.9375 0  2.340750225085827 0.8450755885956063 0  2.74506315455788 1.24506315455788 0  0.4115012634770826 0.3359864655288552 0  1.6875 1.5 0  1.553212834656815 1.259295117559057 0  1.783849920010049 0.8130750647527071 0  2.590242300399914 0.800172794523538 0  2.206538789959823 0.6067588023913982 0  1.022769083327432 0.627137676743421 0  2.0625 1.5 0  2.566013274303806 0.3667751817948443 0  2.317230353528816 0.3853650267397287 0  0.9546600707351991 0.3912757388497677 0  1.76490060939521 0.3540000691256479 0  1.398169292756645 0.3089248951275104 0  0.1875 1.5 0  0.6961815191548208 0.3380429757712475 0  0.6390751493076395 0.7361434669345621 0  1.385952842918209 0.9972233609662619 0  1.082019261833385 1.265823315390121 0  2.784258672215756 0.3048233224522298 0  0 0.5625 0  0.2130557952202133 0.4325455696870932 0  2.110276358430479 0.2903936515686117 0  0 1.3125 0  0.5618175915722093 0.5022778936897083 0  1.438605690073396 0.5702366817214194 0  1.851778102902867 0.6169409446553686 0  0.9375 1.5 0  1.918499765346388 0.9737703250858507 0  1.066617221574711 1.060327143126178 0  0.17830064634795 0.65625 0  1.139464543633635 0.3182162642668528 0  1.214887260891528 0.6824917486258804 0  0.4470960700565646 0.7803305254813445 0  2.056073894593081 1.292965518236122 0  0.7800417460951754 1.309431349558015 0  0.7102942521579887 1.054059105222724 0  2.772203778896419 0.7508393899039921 0  3 0.9375 0  2.4375 1.5 0  0.5625 1.5 0  3 0.5625 0  1.3125 1.5 0  0 0.9375 0  3 1.3125 0  2.8125 1.5 0  3 0.1875 0  1.74009613212014 1.312845810865967 0  0.1858279553328271 1.04932632064409 0  1.582414108002925 0.3243096672004901 0  0.4576542986122824 1.328517530191622 0  1.30595470876181 0 0  0.1616828829631953 1.229471150973137 0  1.600689448835705 0.8342777580615786 0  2.184954406689295 0.9543424310663166 0  2.356848459734244 1.033731425282726 0  2.249618867339344 1.318565528322325 0  2.031012140730151 0.6383085966483963 0  1.264473591492607 0.1926369230867345 0  1.93294708275428 0.2969945700235964 0  1.406271966518558 1.353045118606616 0  0.2855042944080262 1.351202341158466 0  2.163692386827529 0.4469681835123645 0  2.058709899218631 1.05982604745508 0  1.21875 1.361760465218127 0  1.232585115983139 1.060656719142284 0  1.682328919476849 1.161572426192166 0  0.4864612871934715 1.100927295036068 0  2.842393003195402 0.1547034389615206 0  1.901710724058898 1.340659870484523 0  2.578488906869203 1.212378831230944 0  0.346730023619794 1.013455011579226 0  1.758789788261688 0.970834021568154 0  0.9209577900333827 0.984909924281538 0  2.461973640748163 0.2490632223012221 0  2.833434714842781 1.102015011431888 0  1.485476187845101 1.118115752354218 0  0.7869575052851041 0.2127716822913992 0  1.091585464669657 0.4673676525872368 0  0.9308375558444295 1.286291202675726 0  2.609275627299536 0.5207885309723005 0  2.859418780372727 0.4404724026784034 0  0.1368795735450182 0.2913992261536034 0  0.5088670694303536 0.6431238265444117 0  0.9924988599062848 0.7887715626383616 0  0.8674753477047706 0.6821390867986818 0  0.6993572585883594 0.9038049302516018 0  1.53924450853783 0.6818717864694561 0  1.27954362181495 0.818196911265721 0  2.885754890315292 0.65625 0  0.1199579452929171 0.84375 0  0.3101130847613819 0.7251157056441525 0  2.683488575489726 1.10528265125029 0  2.637912450120847 1.350340704724588 0  0.65625 1.387568746661148 0  2.204969505432462 0.7645924845263576 0  2.34230217156612 0.6870332922078795 0  2.458336421316689 0.930056573232228 0  1.547170662421109 0.4687109428674099 0  0.55426355401875 0.2785752421136156 0  1.927690911684502 0.7425770788416013 0  2.650983472818039 0.6639703826486528 0  0.2807744135836687 0.2731407085328489 0  2.697063502273202 0.4130460425434029 0  1.768721210125562 0.4985606178023466 0  1.59375 1.394491048145999 0  1.03125 1.39617417476255 0  2.649124789533757 0.9376608889715211 0  2.899345577629528 0.84375 0  2.448792339301353 1.151333513094988 0  2.455516477512143 0.7671738041202795 0  0.1479512725554237 1.367277900867101 0  1.733007556765436 0.6856365299097277 0  2.865 0 0  0.407900401917371 0.1920322062602331 0  1.482893533441057 0.9020086108979886 0  2.902194538181383 1.21875 0  2.860324471164851 1.360324471164851 0  0.9128790560808855 0.5311054613533476 0  0.7396036279203969 1.183264973390871 0  1.379392725427689 0.4456149894503371 0  0.8305263666170877 0.339868595109382 0  2.352639297837627 1.399880277695907 0  2.15625 1.5 0  2.32277762299786 1.203473773731512 0  1.818471673600783 0.235727380341035 0  1.269129800285538 0.3222823294390822 0  2.329228807632851 0.5297324129610972 0  0.430777275012463 0.469645907614299 0  1.390502090335328 0.1630587681988043 0  1.149408636841162 1.157447166816889 0  1.687853147042319 0.2519031106491252 0  0.3941048876243997 0.8956837842542459 0  1.877835046604575 0.410724628626283 0  1.348230251479045 0.6691802479050837 0  2.336954765206726 0.2613063289913201 0  2.514033953321691 1.393470229958569 0  0 0.46875 0  0.1287800079303892 0.5340043503292357 0  2.441328451749267 0.3721441168812449 0  0.9333932382689634 0.2670516659043625 0  1.13959172768211 0.5827503401695603 0  0.8703665929291606 1.395134656069543 0  1.240468926246127 0.9364063612525604 0  1.433475419570003 1.229904687600933 0  1.020534477629395 0.9101139083191684 0  1.108777781305164 0.7462713331880694 0  0.6468125623079457 0.6038935958199032 0  1.665312060212151 0.428962863572448 0  0.2512528931669099 0.5500044694745148 0  2.66971919386773 0.2450375495263612 0  2.901855502368762 0.2640467328343441 0  2.063534245742155 0.9373123558679215 0  2.031795413587333 0.1972457754676831 0  1.836924180675512 1.065887991891963 0  1.001601941364679 1.16852535211421 0  0.8051266927803291 0.9581030042697194 0  0.7620228346493961 0.7461373576581022 0  3 1.03125 0  2.084817260746984 1.176705869274554 0  2.085981885570153 0.5347538843754811 0  1.496744890324478 0.239335226969819 0  1.894594308711337 0.8570406362709689 0  1.78125 1.5 0  2.109375 1.394928085212741 0  2.71875 1.5 0  0.4943575340553394 1.217544978302146 0  0.5937185858435849 1.055241883498284 0  2.227680725187669 0.3075299344665331 0  0.5158109084499103 0.3891628929402524 0  1.96875 1.5 0  0.6036564600183
[...]
<PointData  Tensors="f_1062"> 
<DataArray  type="Float64"  Name="f_1062"  NumberOfComponents="9" format="ascii">-5.7213055626833658e+00 -3.5363221244950687e+00 0.0000000000000000e+00 -3.5363221244950687e+00 -1.2618228236330728e+01 0.0000000000000000e+00 0.0000000000000000e+00 0.0000000000000000e+00 0.0000000000000000e+00  3.5346684162313231e+01 3.0414926441153054e+00 0.0000000000000000e+00 3.0414926441153054e+00 2.6989108475601732e+01 0.0000000000000000e+00 0.0000000000000000e+00 0.0000000000000000e+00 0.0000000000000000e+00  2.3555148018198508e+01 3.4932205216271504e+00 0.0000000000000000e+00 3.4932205216271504e+00 3.0730792076674788e+01 0.0000000000000000e+00 0.0000000000000000e+00 0.0000000000000000e+00 0.0000000000000000e+00  5.1976049699525397e+01 1.8397637854225614e+01 0.0000000000000000e+00 1.8397637854225614e+01 1.0962508503758514e+01 0.0000000000000000e+00 0.0000000000000000e+00 0.0000000000000000e+00 0.0000000000000000e+00  8.3227171080115966e+01 1.3274259644973608e+01 0.0000000000000000e+00 1.3274259644973608e+01 -3.9456489009658370e+01 0.0000000000000000e+00 0.0000000000000000e+00 0.0000000000000000e+00 0.0000000000000000e+00  1.1808335502633267e+02 -5.7340787010933580e-01 0.0000000000000000e+00 -5.7340787010933580e-01 -6.7456905082614441e+01 0.0000000000000000e+00 0.0000000000000000e+00 0.0000000000000000e+00 0.0000000000000000e+00  7.5096407897458278e+01 -1.4894588777921557e+01 0.0000000000000000e+00 -1.4894588777921557e+01 -2.1751866160763605e+01 0.0000000000000000e+00 0.0000000000000000e+00 0.0000000000000000e+00 0.0000000000000000e+00  3.8295327364316670e+01 5.1774807504346583e+01 0.0000000000000000e+00 5.1774807504346583e+01 1.3870082121139840e+01 0.0000000000000000e+00 0.0000000000000000e+00 0.0000000000000000e+00 0.0000000000000000e+00  4.8279194925239395e+01 7.9598315848326337e+01 0.0000000000000000e+00 7.9598315848326337e+01 -6.4932020724860013e+00 0.0000000000000000e+00 0.0000000000000000e+00 0.0000000000000000e+00 0.0000000000000000e+00  7.5587406561324251e+00 1.4854141870366044e+01 0.0000000000000000e+00 1.4854141870366044e+01 6.3716361415369612e+01 0.0000000000000000e+00 0.0000000000000000e+00 0.0000000000000000e+00 0.0000000000000000e+00  -9.8886751500089332e+01 5.6714432742725343e+01 0.0000000000000000e+00 5.6714432742725343e+01 1.3538039165844728e+02 0.0000000000000000e+00 0.0000000000000000e+00 0.0000000000000000e+00 0.0000000000000000e+00  -8.2346345479154138e+01 1.0465253225281121e+02 0.0000000000000000e+00 1.0465253225281121e+02 1.2587635471821552e+02 0.0000000000000000e+00 0.0000000000000000e+00 0.0000000000000000e+00 0.0000000000000000e+00  3.0781314292853935e+01 9.7090812996703733e+00 0.0000000000000000e+00 9.7090812996703733e+00 4.0049479331118341e+01 0.0000000000000000e+00 0.0000000000000000e+00 0.0000000000000000e+00 0.0000000000000000e+00  2.5891285720684980e+01 -9.1724840902678617e-01 0.0000000000000000e+00 -9.1724840902678617e-01 1.7759153523588445e+01 0.0000000000000000e+00 0.0000000000000000e+00 0.0000000000000000e+00 0.0000000000000000e+00  4.7440586621284993e+01 1.7230316566124124e+01 0.0000000000000000e+00 1.7230316566124124e+01 7.8159515340637746e+00 0.0000000000000000e+00 0.0000000000000000e+00 0.0000000000000000e+00 0.0000000000000000e+00  3.2137846779937064e+01 2.1620567404133983e+01 0.0000000000000000e+00 2.1620567404133983e+01 1.5840170076750322e+01 0.0000000000000000e+00 0.0000000000000000e+00 0.0000000000000000e+00 0.0000000000000000e+00  -5.0806351502237177e+01 2.9345447325679103e+01 0.0000000000000000e+00 2.9345447325679103e+01 1.0988226707029132e+02 0.0000000000000000e+00 0.0000000000000000e+00 0.0000000000000000e+00 0.0000000000000000e+00  -3.9162016208445621e+01 7.0229769244953971e+01 0.0000000000000000e+00 7.0229769244953971e+01 9.2322072919528438e+01 0.0000000000000000e+00 0.0000000000000000e+00 0.0000000000000000e+00 0.0000000000000000e+00  8.1712239934905817e-01 -6.8902030835433763e+00 0.0000000000000000e+00 -6.8902030835433763e+00 6.7456380965657090e+01 0.0000000000000000e+00 0.0000000000000000e+00 0.0000000000000000e+00 0.0000000000000000e+00  -6.1726187197145819e+01 -6.3651116565551185e+01 0.0000000000000000e+00 -6.3651116565551185e+01 1.1838867069084722e+02 0.0000000000000000e+00 0.0000000000000000e+00 0.0000000000000000e+00 0.0000000000000000e+00  1.8239121030320886e+00 -2.1604153617554950e+01 0.0000000000000000e+00 -2.1604153617554950e+01 4.2774893071139019e+01 0.0000000000000000e+00 0.0000000000000000e+00 0.0000000000000000e+00 0.0000000000000000e+00  4.5047333604082638e+01 -2.5065787423968416e+01 0.0000000000000000e+00 -2.5065787423968416e+01 9.1281830463654046e-01 0.0000000000000000e+00 0.0000000000000000e+00 0.0000000000000000e+00 0.0000000000000000e+00  2.8526264982060390e+01 4.1913214027668175e+00 0.0000000000000000e+00 4.1913214027668175e+00 1.9744091951547457e+01 0.0000000000000000e+00 0.0000000000000000e+00 0.0000000000000000e+00 0.0000000000000000e+00  -4.9869468751538362e+00 -1.9509922019959454e+01 0.0000000000000000e+00 -1.9509922019959454e+01 7.1911902978435677e+01 0.0000000000000000e+00 0.0000000000000000e+00 0.0000000000000000e+00 0.0000000000000000e+00  -4.7021756657323550e+01 -9.1078252486431296e+01 0.0000000000000000e+00 -9.1078252486431296e+01 9.5612372868086354e+01 0.0000000000000000e+00 0.0000000000000000e+00 0.0000000000000000e+00 0.0000000000000000e+00  -1.1492543936104563e+02 -4.8503702916196886e+01 0.0000000000000000e+00 -4.8503702916196886e+01 1.4386403777496039e+02 0.0000000000000000e+00 0.0000000000000000e+00 0.0000000000000000e+00 0.0000000000000000e+00  -5.1933219371711232e+01 -2.6025693493144477e+01 0.0000000000000000e+00 -2.6025693493144477e+01 1.0063603913109962e+02 0.0000000000000000e+00 0.0000000000000000e+00 0.0000000000000000e+00 0.0000000000000000e+00  2.8303734038938913e+01 -5.3377911095960087e+01 0.0000000000000000e+00 -5.3377911095960087e+01 1.7234117058245751e+01 0.0000000000000000e+00 0.0000000000000000e+00 0.0000000000000000e+00 0.0000000000000000e+00  2.6103089298439009e+01 -6.1326081388161924e+01 0.0000000000000000e+00 -6.1326081388161924e+01 7.3053701389238057e+00 0.0000000000000000e+00 0.0000000000000000e+00 0.0000000000000000e+00 0.0000000000000000e+00  5.6986432364159235e+01 1.4097795770256814e+01 0.0000000000000000e+00 1.4097795770256814e+01 -1.2762364478842812e+01 0.0000000000000000e+00 0.0000000000000000e+00 0.0000000000000000e+00 0.0000000000000000e+00  1.0888334824452208e+02 3.3658932147828857e+01 0.0000000000000000e+00 3.3658932147828857e+01 -7.2507330741630923e+01 0.0000000000000000e+00 0.0000000000000000e+00 0.0000000000000000e+00 0.0000000000000000e+00  8.6520100303555367e+01 -2.6857626221253432e+00 0.0000000000000000e+00 -2.6857626221253432e+00 -3.7715362706350199e+01 0.0000000000000000e+00 0.0000000000000000e+00 0.0000000000000000e+00 0.0000000000000000e+00  3.5453615839432871e+01 -1.1914774486716279e+01 0.0000000000000000e+00 -1.1914774486716279e+01 1.3085322792889169e+01 0.0000000000000000e+00 0.0000000000000000e+00 0.0000000000000000e+00 0.0000000000000000e+00  2.3036027203663838e+01 -7.7836632054796417e-01 0.0000000000000000e+00 -7.7836632054796417e-01 1.7041499030032142e+01 0.0000000000000000e+00 0.0000000000000000e+00 0.0000000000000000e+00 0.0000000000000000e+00  2.3690805699263489e+01 -1.7476749383439834e+00 0.0000000000000000e+00 -1.7476749383439834e+00 2.4143320101231218e+01 0.0000000000000000e+00 0.0000000000000000e+00 0.0000000000000000e+00 0.0000000000000000e+00  -5.0341716244857949e+01 -3.9123019168289133e+01 0.0000000000000000e+00 -3.9123019168289133e+01 8.4195433785690611e+01 0.0000000000000000e+00 0.0000000000000000e+00 0.0000000000000000e+00 0.0000000000000000e+00  -6.6394913423246052e+01 -7.1155834537250016e+01 0.0000000000000000e+00 -7.1155834537250016e+01 9.8328944177623868e+01 0.0000000000000000e+00 0.0000000000000000e+00 0.0000000000000000e+00 0.0000000000000000e+00  -6.3868680621458999e+01 -3.3751027778369561e+01 0.0000000000000000e+00 -3.3751027778369561e+01 1.0113335764061218e+02 0.0000000000000000e+00 0.0000000000000000e+00 0.0000000000000000e+00 0.0000000000000000e+00  1.8283880946536506e+01 -3.7326673393873691e+01 0.0000000000000000e+00 -3.7326673393873691e+01 2.3853630388629302e+01 0.0000000000000000e+00 0.0000000000000000e+00 0.0000000000000000e+00 0.0000000000000000e+00  2.3539735808677460e+01 -7.9989315037580056e+01 0.0000000000000000e+00 -7.9989315037580056e+01 -8.7303494657320062e+00 0.0000000000000000e+00 0.0000000000000000e+00 0.0000000000000000e+00 0.0000000000000000e+00  6.0818071468893606e+01 1.7540928221184801e-01 0.0000000000000000e+00 1.7540928221184801e-01 -2.0929737207583937e+01 0.0000000000000000e+00 0.0000000000000000e+00 0.0000000000000000e+00 0.0000000000000000e+00  1.2652596830265209e+02 4.7967584266255322e+01 0.0000000000000000e+00 4.7967584266255322e+01 -8.1949817819111615e+01 0.0000000000000000e+00 0.0000000000000000e+00 0.0000000000000000e+00 0.0000000000000000e+00  1.1697895216932480e+02 -8.5173947392302090e+00 0.0000000000000000e+00 -8.5173947392302090e+00 -7.1063235704212445e+01 0.0000000000000000e+00 0.0000000000000000e+00 0.0000000000000000e+00 0.0000000000000000e+00  4.3160956346006131e+01 -2.8220874154130669e+01 0.0000000000000000e+00 -2.8220874154130662e+01 -4.5418130710392193e+00 0.0000000000000000e+00 0.0000000000000000e+00 0.0000000000000000e+00 0.0000000000000000e+00  2.8117692022871555e+01 -4.4833415239795489e+00 0.0000000000000000e+00 -4.4833415239795480e+00 7.0366343646127829e+00 0.0000000000000000e+00 0.0000000000000000e+00 0.0000000000000000e+00 0.0000000000000000e+00  1.4770689258868741e+01 -3.6567894343469307e+00 0.0000000000000000e+00 -3.6567894343469294e+00 4.2419932809019940e+01 0.0000000000000000e+00 0.0000000000000000e+00 0.0000000000000000e+00 0.0000000000000000e+00  -1.0671863490523050e+01 -1.7390569023063794e+01 0.0000000000000000e+00 -1.7390569023063794e+01 5.0318736371551019e+01 0.0000000000000000e+00 0.0000000000000000e+00 0.0000000000000000e+00 0.0000000000000000e+00  -1.9136334864725285e+01 -1.9366507795204846e+01 0.0000000000000000e+00 -1.9366507795204846e+01 6.0050057526056271e+01 0.0000000000000000e+00 0.0000000000000000e+00 0.0000000000000000e+00 0.0000000000000000e+00  3.6146514747543854e+01 -6.8326553369001516e+01 0.0000000000000000e+00 -6.8326553369001516e+01 9.1989417841249512e+00 0.0000000000000000e+00 0.0000000000000000e+00 0.0000000000000000e+00 0.0000000000000000e+00  1.7620184064656279e+01 -9.4396107900800928e+01 0.0000000000000000e+00 -9.4396107900800928e+01 -5.9709204153388562e+00 0.0000000000000000e+00 0.0000000000000000e+00 0.0000000000000000e+00 0.0000000000000000e+00  8.0977549040240262e+01 8.5654850198518044e+00 0.0000000000000000e+00 8.5654850198518044e+00 -4.4598085648281923e+01 0.0000000000000000e+00 0.0000000000000000e+00 0.0000000000000000e+00 0.0000000000000000e+00  1.2773647133818302e+02 1.6690853038551491e+01 0.0000000000000000e+00 1.6690853038551491e+01 -9.2513611181155269e+01 0.0000000000000000e+00 0.0000000000000000e+00 0.0000000000000000e+00 0.0000000000000000e+00  8.5615026949370176e+01 -4.7479143824796012e+01 0.0000000000000000e+00 -4.7479143824796012e+01 -4.8517018085359275e+01 0.0000000000000000e+00 0.0000000000000000e+00 0.0000000000000000e+00 0.0000000000000000e+00  9.7179469777696390e+00 -1.0101974549303002e+01 0.0000000000000000e+00 -1.0101974549303002e+01 1.8690682261374562e+01 0.0000000000000000e+00 0.0000000000000000e+00 0.0000000000000000e+00 0.0000000000000000e+00  2.7178327965767778e+01 -5.1558664827449547e+00 0.0000000000000000e+00 -5.1558664827449547e+00 8.1417539404669412e+00 0.0000000000000000e+00 0.0000000000000000e+00 0.0000000000000000e+00 0.0000000000000000e+00  3.8885200533235377e+01 2.3658162203190376e+01 0.0000000000000000e+00 2.3658162203190376e+01 -4.0532384789839258e+00 0.0000000000000000e+00 0.0000000000000000e+00 0.0000000000000000e+00 0.0000000000000000e+00  7.2382946099567377e+01 2.2938770111467292e+01 0.0000000000000000e+00 2.2938770111467292e+01 -4.3382294037914214e+01 0.0000000000000000e+00 0.0000000000000000e+00 0.0000000000000000e+00 0.0000000000000000e+00  1.1306108882966835e+02 -2.2896158944150958e+01 0.0000000000000000e+00 -2.2896158944150958e+01 -9.4231861089124450e+01 0.0000000000000000e+00 0.0000000000000000e+00 0.0000000000000000e+00 0.0000000000000000e+00  1.0614059178417435e+02 -4.0843580057856300e+01 0.0000000000000000e+00 -4.0843580057856300e+01 -7.0830416988817873e+01 0.0000000000000000e+00 0.0000000000000000e+00 0.0000000000000000e+00 0.0000000000000000e+00  2.5571945188475151e+01 4.0129236998162078e+01 0.0000000000000000e+00 4.0129236998162078e+01 7.3590884586400984e-01 0.0000000000000000e+00 0.0000000000000000e+00 0.0000000000000000e+00 0.0000000000000000e+00  1.3924864161376258e+01 3.9063116248045937e+01 0.0000000000000000e+00 3.9063116248045937e+01 1.6931898612135004e+01 0.0000000000000000e+00 0.0000000000000000e+00 0.0000000000000000e+00 0.0000000000000000e+00  -3.9787488304543935e+01 -2.9107700445064726e+00 0.0000000000000000e+00 -2.9107700445064726e+00 7.2106990149271596e+01 0.0000000000000000e+00 0.0000000000000000e+00 0.0000000000000000e+00 0.0000000000000000e+00  -1.0336746402993435e+02 3.8929727595524895e+01 0.0000000000000000e+00 3.8929727595524895e+01 1.2503153459364576e+02 0.0000000000000000e+00 0.0000000000000000e+00 0.0000000000000000e+00 0.0000000000000000e+00  -3.0790379574111263e+01 2.8607093960593986e+01 0.0000000000000000e+00 2.8607093960593986e+01 5.7489599143540637e+01 0.0000000000000000e+00 0.0000000000000000e+00 0.0000000000000000e+00 0.0000000000000000e+00  1.0974911725031216e+01 -1.7996133785064961e+00 0.0000000000000000e+00 -1.7996133785064961e+00 2.6451261891409914e+01 0.0000000000000000e+00 0.0000000000000000e+00 0.0000000000000000e+00 0.0000000000000000e+00  1.5328589936401267e+01 7.0021028254908202e-01 0.0000000000000000e+00 7.0021028254908202e-01 1.6148241895119931e+01 0.0000000000000000e+00 0.0000000000000000e+00 0.0000000000000000e+00 0.0000000000000000e+00  2.4911613365066700e+01 9.8889268697309092e+00 0.0000000000000000e+00 9.8889268697309092e+00 2.3771953874296720e-01 0.0000000000000000e+00 0.0000000000000000e+00 0.0000000000000000e+00 0.0000000000000000e+00  9.1447901372119091e+01 9.8579376268076153e+00 0.0000000000000000e+00 9.8579376268076153e+00 -6.0033003851567727e+01 0.0000000000000000e+00 0.0000000000000000e+00 0.0000000000000000e+00 0.0000000000000000e+00  1.2337405359915782e+02 -5.7230938808421890e+01 0.0000000000000000e+00 -5.7230938808421890e+01 -1.2262955182236573e+02 0.0000000000000000e+00 0.0000000000000000e+00 0.0000000000000000e+00 0.0000000000000000e+00  5.3704006425300513e+01 -4.3331621361252957e+01 0.0000000000000000e+00 -4.3331621361252957e+01 -4.3764003238252926e+01 0.0000000000000000e+00 0.0000000000000000e+00 0.0000000000000000e+00 0.0000000000000000e+00  2.7634882135468932e+00 -1.5798804551488381e+01 0.0000000000000000e+00 -1.5798804551488381e+01 1.3355755214524011e+01 0.0000000000000000e+00 0.0000000000000000e+00 0.0000000000000000e+00 0.0000000000000000e+00  -6.3740671650974122e+01 -3.6568074106507957e+01 0.0000000000000000e+00 -3.6568074106507957e+01 1.0780762232998167e+02 0.0000000000000000e+00 0.0000000000000000e+00 0.0000000000000000e+00 0.0000000000000000e+00  -1.7628628398724589e+02 4.0519650595581865e+01 0.0000000000000000e+00 4.0519650595581865e+01 1.8955180164269137e+02 0.0000000000000000e+00 0.0000000000000000e+00 0.0000000000000000e+00 0.0000000000000000e+00  -1.0948770545588634e+02 1.5069719989310789e+02 0.0000000000000000e+00 1.5069719989310789e+02 1.2860778766669932e+02 0.0000000000000000e+00 0.0000000000000000e+00 0.0000000000000000e+00 0.0000000000000000e+00  -3.5438346065683759e+00 -1.1118173986804463e+01 0.0000000000000000e+00 -1.1118173986804463e+01 2.7183625801980632e+01 0.0000000000000000e+00 0.0000000000000000e+00 0.0000000000000000e+00 0.0000000000000000e+00  -1.4591673226720826e+02 1.0863624902193845e+02 0.0000000000000000e+00 1.0863624902193845e+02 2.1032896727219139e+00 0.0000000000000000e+00 0.0000000000000000e+00 0.0000000000000000e+00 0.0000000000000000e+00  3.5311722624613407e+02 2.1434175607109356e+02 0.0000000000000000e+00 2.1434175607109356e+02 6.4666159442827549e+01 0.0000000000000000e+00 0.0000000000000000e+00 0.0000000000000000e+00 0.0000000000000000e+00  9.8260730336473490e+00 1.0637499580994560e+02 0.0000000000000000e+00 1.0637499580994560e+02 7.6289316465746406e+00 0.0000000000000000e+00 0.0000000000000000e+00 0.0000000000000000e+00 0.0000000000000000e+00  -4.3330408706707075e+00 -2.2820808796732763e+02 0.0000000000000000e+00 -2.2820808796732763e+02 1.3139097180711050e+00 0.0000000000000000e+00 0.0000000000000000e+00 0.0000000000000000e+00 0.0000000000000000e+00  8.6040218417996321e+00 1.4823191411854786e+01 0.0000000000000000e+00 1.4823191411854786e+01 -3.0454286178612978e+01 0.0000000000000000e+00 0.0000000000000000e+00 0.0000000000000000e+00 0.0000000000000000e+00  1.6684309470997039e+01 1.0973411916883242e+02 0.0000000000000000e+00 1.0973411916883242e+02 2.0847337745833247e+01 0.0000000000000000e+00 0.0000000000000000e+00 0.0000000000000000e+00 0.0000000000000000e+00  3.1105905702152818e+01 9.9160636668603644e+01 0.0000000000000000e+00 9.9160636668603644e+01 1.1454839483616917e+01 0.0000000000000000e+00 0.0000000000000000e+00 0.0000000000000000e+00 0.0000000000000000e+00  1.6724352490643128e+01 5.7504504555381835e+01 0.0000000000000000e+00 5.7504504555381835e+01 3.4565740537164281e+01 0.0000000000000000e+00 0.0000000000000000e+00 0.0000000000000000e+00 0.0000000000000000e+00  -2.5330815890470149e+01 7.1493229442382509e+00 0.0000000000000000e+00 7.1493229442382509e+00 1.4332577449211026e+00 0.0000000000000000e+00 0.0000000000000000e+00 0.0000000000000000e+00 0.0000000000000000e+00  -7.1747595340261290e+00 -9.7409005148531289e+00 0.0000000000000000e+00 -9.7409005148531289e+00 -1.1653052168935961e+01 0.0000000000000000e+00 0.0000000000000000e+00 0.0000000000000000e+00 0.0000000000000000e+00  2.7722984666103785e+00 2.6493452972737543e+01 0.0000000000000000e+00 2.6493452972737543e+01 3.1570007614820401e+00 0.0000000000000000e+00 0.0000000000000000e+00 0.0000000000000000e+00 0.0000000000000000e+00  1.6390921741225515e+00 2.2936567026710669e+01 0.0000000000000000e+00 2.2936567026710669e+01 1.3658678114626865e+00 0.0000000000000000e+00 0.0000000000000000e+00 0.0000000000000000e+00 0.0000000000000000e+00  2.4950510009991422e+00 2.2158904717222800e+01 0.0000000000000000e+00 2.2158904717222800e+01 3.0067385066564807e+00 0.0000000000000000e+00 0.0000000000000000e+00 0.0000000000000000e+00 0.0000000000000000e+00  -2.0835332500603325e+00 -2.9138890467347447e+00 0.0000000000000000e+00 -2.9138890467347447e+00 -4.6958000341464432e+00 0.0000000000000000e+00 0.0000000000000000e+00 0.0000000000000000e+00 0.0000000000000000e+00  2.2840036618677582e+00 -2.5575603640024539e+01 0.0000000000000000e+00 -2.5575603640024539e+01 5.9110820561730222e+00 0.0000000000000000e+00 0.0000000000000000e+00 0.0000000000000000e+00 0.0000000000000000e+00  -1.8384093464307398e+00 -2.1494383308858492e+01 0.0000000000000000e+00 -2.1494383308858492e+01 -2.2806559359132019e+00 0.0000000000000000e+00 0.0000000000000000e+00 0.0000000000000000e+00 0.0000000000000000e+00  1.1964038214640100e+01 1.0124936625190941e+01 0.0000000000000000e+00 1.0124936625190941e+01 1.1986587198138741e+01 0.0000000000000000e+00 0.0000000000000000e+00 0.0000000000000000e+00 0.0000000000000000e+00  8.0040673343622970e+00 -9.7635486368630975e-01 0.0000000000000000e+00 -9.7635486368630986e-01 8.3753980767094198e+00 0.0000000000000000e+00 0.0000000000000000e+00 0.0000000000000000e+00 0.0000000000000000e+00  -2.8232894291385573e+01 -9.4358160077477351e+01 0.0000000000000000e+00 -9.4358160077477351e+01 -1.4458214595295347e+01 0.0000000000000000e+00 0.0000000000000000e+00 0.0000000000000000e+00 0.0000000000000000e+00  1.2528666929215174e+01 -2.7451058303585786e+01 0.0000000000000000e+00 -2.7451058303585786e+01 1.2332433355631057e+01 0.0000000000000000e+00 0.0000000000000000e+00 0.0000000000000