<?xml version="1.0"?>
<VTKFile type="UnstructuredGrid"  version="0.1"  >
<UnstructuredGrid>
<Piece  NumberOfPoints="4978" NumberOfCells="9630">
<Points>
<DataArray  type="Float64"  NumberOfComponents="3"  format="ascii">0 1.5 0  0 0 0  0.06190941752361886 0 0  0.06190941752361886 0.02304324263930277 0  0.07687367483109155 0.06663263502519032 0  0.1051805799723963 0.1030013474942385 0  0.1437626405485843 0.128208265731708 0  0.1884388916338735 0.1395218290209338 0  0.2343679681997119 0.1357160372315063 0  0.2765727421371398 0.117203306956754 0  0.3104796713154951 0.0859897797765535 0  0.3324144138380889 0.04545792568865569 0  0.34 0 0  0.4722134970410927 0 0  0.4722134970410927 0.02388743731615415 0  0.4894717723551502 0.0684361811740563 0  0.5216574972706967 0.1037422395464312 0  0.5644238112906292 0.1250373336124665 0  0.6119948867302293 0.1294454429183545 0  0.6579459862509499 0.1163712278761581 0  0.6960711592386857 0.08758043367405244 0  0.7212213898225662 0.04696141660432988 0  0.73 0 0  0.85 0 0  0.857341522555727 0.04635254915624212 0  0.8786474508437579 0.08816778784387098 0  0.9118322121561291 0.1213525491562421 0  0.9536474508437579 0.142658477444273 0  1 0.15 0  1.046352549156242 0.142658477444273 0  1.088167787843871 0.1213525491562421 0  1.121352549156242 0.08816778784387097 0  1.142658477444273 0.04635254915624211 0  1.15 0 0  1.461909417523619 0 0  1.461909417523619 0.02304324263930277 0  1.476873674831092 0.06663263502519032 0  1.505180579972396 0.1030013474942385 0  1.543762640548584 0.128208265731708 0  1.588438891633874 0.1395218290209338 0  1.634367968199712 0.1357160372315063 0  1.67657274213714 0.117203306956754 0  1.710479671315495 0.0859897797765535 0  1.732414413838089 0.04545792568865569 0  1.74 0 0  1.78 0 0  1.789134456098646 0.04592201188381079 0  1.815147186257614 0.08485281374238571 0  1.854077988116189 0.1108655439013544 0  1.9 0.12 0  1.945922011883811 0.1108655439013544 0  1.984852813742386 0.08485281374238569 0  2.010865543901355 0.04592201188381077 0  2.02 0 0  2.161909417523619 0 0  2.161909417523619 0.02304324263930277 0  2.176873674831092 0.06663263502519032 0  2.205180579972396 0.1030013474942385 0  2.243762640548584 0.128208265731708 0  2.288438891633873 0.1395218290209338 0  2.334367968199712 0.1357160372315063 0  2.37657274213714 0.117203306956754 0  2.410479671315495 0.0859897797765535 0  2.432414413838089 0.04545792568865569 0  2.44 0 0  2.472213497041093 0 0  2.472213497041093 0.02388743731615415 0  2.48947177235515 0.0684361811740563 0  2.521657497270697 0.1037422395464312 0  2.564423811290629 0.1250373336124665 0  2.611994886730229 0.1294454429183545 0  2.65794598625095 0.1163712278761581 0  2.696071159238686 0.08758043367405244 0  2.721221389822567 0.04696141660432988 0  2.73 0 0  3 0 0  3 1.5 0  0 0.75 0  3 0.75 0  1.5 1.5 0  0 0.375 0  0 0.1875 0  0 0.09375 0  0.75 1.5 0  2.25 1.5 0  1.137279452465634 0.8667483509386543 0  2.055384907633385 0.8149748422668953 0  0.5545701656450307 0.9454298343549693 0  2.545804583542266 1.045804583542266 0  2.462951104370831 0.5854482317237805 0  1.6063536999151 1.018574336065804 0  0.7683179692414909 0.5511078775270282 0  1.647896012796697 0.5780189144999826 0  1.875 1.5 0  0.3683226130580748 0.5893782185394094 0  0.375 1.5 0  0 1.125 0  3 0.375 0  1.125 1.5 0  3 1.125 0  2.625 1.5 0  1.247216233241016 0.4851891764902285 0  0.8779404074027722 1.143194262378568 0  1.992337703792022 0.4642129848858538 0  2.200035536160075 1.144037289792772 0  1.3125 1.206118267007311 0  1.882280687299076 1.18026905614258 0  0.8375010042452264 0.8437030129736524 0  0.2703628106324028 0.8673582108832857 0  0.336944444033578 1.181320038574892 0  1.424720841531434 0.7792108746582741 0  2.763716218670896 0.5625 0  0.6112325230261646 1.216037756380734 0  2.429292395855053 1.293345775631689 0  2.798691155259055 0.9375 0  2.340750225085827 0.8450755885956063 0  2.74506315455788 1.24506315455788 0  0.4115012634770826 0.3359864655288552 0  1.6875 1.5 0  1.553212834656815 1.259295117559057 0  1.783849920010049 0.8130750647527071 0  2.590242300399914 0.800172794523538 0  2.206538789959823 0.6067588023913982 0  1.022769083327432 0.627137676743421 0  2.0625 1.5 0  2.566013274303806 0.3667751817948443 0  2.317230353528816 0.3853650267397287 0  0.9546600707351991 0.3912757388497677 0  1.76490060939521 0.3540000691256479 0  1.398169292756645 0.3089248951275104 0  0.1875 1.5 0  0.6961815191548208 0.3380429757712475 0  0.6390751493076395 0.7361434669345621 0  1.385952842918209 0.9972233609662619 0  1.082019261833385 1.265823315390121 0  2.784258672215756 0.3048233224522298 0  0 0.5625 0  0.2130557952202133 0.4325455696870932 0  2.110276358430479 0.2903936515686117 0  0 1.3125 0  0.5618175915722093 0.5022778936897083 0  1.438605690073396 0.5702366817214194 0  1.851778102902867 0.6169409446553686 0  0.9375 1.5 0  1.918499765346388 0.9737703250858507 0  1.066617221574711 1.060327143126178 0  0.17830064634795 0.65625 0  1.139464543633635 0.3182162642668528 0  1.214887260891528 0.6824917486258804 0  0.4470960700565646 0.7803305254813445 0  2.056073894593081 1.292965518236122 0  0.7800417460951754 1.309431349558015 0  0.7102942521579887 1.054059105222724 0  2.772203778896419 0.7508393899039921 0  3 0.9375 0  2.4375 1.5 0  0.5625 1.5 0  3 0.5625 0  1.3125 1.5 0  0 0.9375 0  3 1.3125 0  2.8125 1.5 0  3 0.1875 0  1.74009613212014 1.312845810865967 0  0.1858279553328271 1.04932632064409 0  1.582414108002925 0.3243096672004901 0  0.4576542986122824 1.328517530191622 0  1.30595470876181 0 0  0.1616828829631953 1.229471150973137 0  1.600689448835705 0.8342777580615786 0  2.184954406689295 0.9543424310663166 0  2.356848459734244 1.033731425282726 0  2.249618867339344 1.318565528322325 0  2.031012140730151 0.6383085966483963 0  1.264473591492607 0.1926369230867345 0  1.93294708275428 0.2969945700235964 0  1.406271966518558 1.353045118606616 0  0.2855042944080262 1.351202341158466 0  2.163692386827529 0.4469681835123645 0  2.058709899218631 1.05982604745508 0  1.21875 1.361760465218127 0  1.232585115983139 1.060656719142284 0  1.682328919476849 1.161572426192166 0  0.4864612871934715 1.100927295036068 0  2.842393003195402 0.1547034389615206 0  1.901710724058898 1.340659870484523 0  2.578488906869203 1.212378831230944 0  0.346730023619794 1.013455011579226 0  1.758789788261688 0.970834021568154 0  0.9209577900333827 0.984909924281538 0  2.461973640748163 0.2490632223012221 0  2.833434714842781 1.102015011431888 0  1.485476187845101 1.118115752354218 0  0.7869575052851041 0.2127716822913992 0  1.091585464669657 0.4673676525872368 0  0.9308375558444295 1.286291202675726 0  2.609275627299536 0.5207885309723005 0  2.859418780372727 0.4404724026784034 0  0.1368795735450182 0.2913992261536034 0  0.5088670694303536 0.6431238265444117 0  0.9924988599062848 0.7887715626383616 0  0.8674753477047706 0.6821390867986818 0  0.6993572585883594 0.9038049302516018 0  1.53924450853783 0.6818717864694561 0  1.27954362181495 0.818196911265721 0  2.885754890315292 0.65625 0  0.1199579452929171 0.84375 0  0.3101130847613819 0.7251157056441525 0  2.683488575489726 1.10528265125029 0  2.637912450120847 1.350340704724588 0  0.65625 1.387568746661148 0  2.204969505432462 0.7645924845263576 0  2.34230217156612 0.6870332922078795 0  2.458336421316689 0.930056573232228 0  1.547170662421109 0.4687109428674099 0  0.55426355401875 0.2785752421136156 0  1.927690911684502 0.7425770788416013 0  2.650983472818039 0.6639703826486528 0  0.2807744135836687 0.2731407085328489 0  2.697063502273202 0.4130460425434029 0  1.768721210125562 0.4985606178023466 0  1.59375 1.394491048145999 0  1.03125 1.39617417476255 0  2.649124789533757 0.9376608889715211 0  2.899345577629528 0.84375 0  2.448792339301353 1.151333513094988 0  2.455516477512143 0.7671738041202795 0  0.1479512725554237 1.367277900867101 0  1.733007556765436 0.6856365299097277 0  2.865 0 0  0.407900401917371 0.1920322062602331 0  1.482893533441057 0.9020086108979886 0  2.902194538181383 1.21875 0  2.860324471164851 1.360324471164851 0  0.9128790560808855 0.5311054613533476 0  0.7396036279203969 1.183264973390871 0  1.379392725427689 0.4456149894503371 0  0.8305263666170877 0.339868595109382 0  2.352639297837627 1.399880277695907 0  2.15625 1.5 0  2.32277762299786 1.203473773731512 0  1.818471673600783 0.235727380341035 0  1.269129800285538 0.3222823294390822 0  2.329228807632851 0.5297324129610972 0  0.430777275012463 0.469645907614299 0  1.390502090335328 0.1630587681988043 0  1.149408636841162 1.157447166816889 0  1.687853147042319 0.2519031106491252 0  0.3941048876243997 0.8956837842542459 0  1.877835046604575 0.410724628626283 0  1.348230251479045 0.6691802479050837 0  2.336954765206726 0.2613063289913201 0  2.514033953321691 1.393470229958569 0  0 0.46875 0  0.1287800079303892 0.5340043503292357 0  2.441328451749267 0.3721441168812449 0  0.9333932382689634 0.2670516659043625 0  1.13959172768211 0.5827503401695603 0  0.8703665929291606 1.395134656069543 0  1.240468926246127 0.9364063612525604 0  1.433475419570003 1.229904687600933 0  1.020534477629395 0.9101139083191684 0  1.108777781305164 0.7462713331880694 0  0.6468125623079457 0.6038935958199032 0  1.665312060212151 0.428962863572448 0  0.2512528931669099 0.5500044694745148 0  2.66971919386773 0.2450375495263612 0  2.901855502368762 0.2640467328343441 0  2.063534245742155 0.9373123558679215 0  2.031795413587333 0.1972457754676831 0  1.836924180675512 1.065887991891963 0  1.001601941364679 1.16852535211421 0  0.8051266927803291 0.9581030042697194 0  0.7620228346493961 0.7461373576581022 0  3 1.03125 0  2.084817260746984 1.176705869274554 0  2.085981885570153 0.5347538843754811 0  1.496744890324478 0.239335226969819 0  1.894594308711337 0.8570406362709689 0  1.78125 1.5 0  2.109375 1.394928085212741 0  2.71875 1.5 0  0.4943575340553394 1.217544978302146 0  0.5937185858435849 1.055241883498284 0  2.227680725187669 0.3075299344665331 0  0.5158109084499103 0.3891628929402524 0  1.96875 1.5 0  0.6036564600183
[...]
<PointData  Tensors="f_1100"> 
<DataArray  type="Float64"  Name="f_1100"  NumberOfComponents="9" format="ascii">-5.6072228974095051e+00 -3.6772926682062219e+00 0.0000000000000000e+00 -3.6772926682062219e+00 -1.2686980699562442e+01 0.0000000000000000e+00 0.0000000000000000e+00 0.0000000000000000e+00 0.0000000000000000e+00  3.5235145993731543e+01 3.0596319968940020e+00 0.0000000000000000e+00 3.0596319968940020e+00 2.6883593944832224e+01 0.0000000000000000e+00 0.0000000000000000e+00 0.0000000000000000e+00 0.0000000000000000e+00  2.3420634995416002e+01 3.5043864411029269e+00 0.0000000000000000e+00 3.5043864411029269e+00 3.0593411932161139e+01 0.0000000000000000e+00 0.0000000000000000e+00 0.0000000000000000e+00 0.0000000000000000e+00  5.2060519527113406e+01 1.8531062569005670e+01 0.0000000000000000e+00 1.8531062569005670e+01 1.0639098238447380e+01 0.0000000000000000e+00 0.0000000000000000e+00 0.0000000000000000e+00 0.0000000000000000e+00  8.3775298858078827e+01 1.3827771468921114e+01 0.0000000000000000e+00 1.3827771468921114e+01 -4.0453181279901379e+01 0.0000000000000000e+00 0.0000000000000000e+00 0.0000000000000000e+00 0.0000000000000000e+00  1.1978753390278463e+02 -1.4996111601253788e+00 0.0000000000000000e+00 -1.4996111601253788e+00 -6.9255665895642608e+01 0.0000000000000000e+00 0.0000000000000000e+00 0.0000000000000000e+00 0.0000000000000000e+00  7.6481449099052185e+01 -1.5539551083666677e+01 0.0000000000000000e+00 -1.5539551083666677e+01 -2.2739794545767918e+01 0.0000000000000000e+00 0.0000000000000000e+00 0.0000000000000000e+00 0.0000000000000000e+00  3.8616957410932017e+01 5.3282097670661763e+01 0.0000000000000000e+00 5.3282097670661763e+01 1.4095838196892581e+01 0.0000000000000000e+00 0.0000000000000000e+00 0.0000000000000000e+00 0.0000000000000000e+00  4.8517480061442093e+01 8.1068995204804679e+01 0.0000000000000000e+00 8.1068995204804679e+01 -6.7999152181119920e+00 0.0000000000000000e+00 0.0000000000000000e+00 0.0000000000000000e+00 0.0000000000000000e+00  7.5544788337015669e+00 1.4954825612760999e+01 0.0000000000000000e+00 1.4954825612760999e+01 6.4122431423844887e+01 0.0000000000000000e+00 0.0000000000000000e+00 0.0000000000000000e+00 0.0000000000000000e+00  -1.0232648227792684e+02 5.8762679697009403e+01 0.0000000000000000e+00 5.8762679697009403e+01 1.3839303572662874e+02 0.0000000000000000e+00 0.0000000000000000e+00 0.0000000000000000e+00 0.0000000000000000e+00  -8.6022918157383046e+01 1.0808617663406687e+02 0.0000000000000000e+00 1.0808617663406687e+02 1.2880215462782772e+02 0.0000000000000000e+00 0.0000000000000000e+00 0.0000000000000000e+00 0.0000000000000000e+00  3.0324328509056215e+01 9.7408185994888488e+00 0.0000000000000000e+00 9.7408185994888488e+00 4.0902343621555687e+01 0.0000000000000000e+00 0.0000000000000000e+00 0.0000000000000000e+00 0.0000000000000000e+00  2.5930974883012770e+01 -1.0009647566668134e+00 0.0000000000000000e+00 -1.0009647566668134e+00 1.7478569833455804e+01 0.0000000000000000e+00 0.0000000000000000e+00 0.0000000000000000e+00 0.0000000000000000e+00  4.7578464621582341e+01 1.7352170607144707e+01 0.0000000000000000e+00 1.7352170607144707e+01 7.4833842569065112e+00 0.0000000000000000e+00 0.0000000000000000e+00 0.0000000000000000e+00 0.0000000000000000e+00  3.2546233583766771e+01 2.2059401059752609e+01 0.0000000000000000e+00 2.2059401059752609e+01 1.5355315521312127e+01 0.0000000000000000e+00 0.0000000000000000e+00 0.0000000000000000e+00 0.0000000000000000e+00  -5.3070495691437316e+01 3.0150763097936377e+01 0.0000000000000000e+00 3.0150763097936377e+01 1.1231534889340409e+02 0.0000000000000000e+00 0.0000000000000000e+00 0.0000000000000000e+00 0.0000000000000000e+00  -4.1225822546904880e+01 7.1845859760431821e+01 0.0000000000000000e+00 7.1845859760431821e+01 9.4458899140630692e+01 0.0000000000000000e+00 0.0000000000000000e+00 0.0000000000000000e+00 0.0000000000000000e+00  1.0702373711701474e+00 -6.8101960032645321e+00 0.0000000000000000e+00 -6.8101960032645321e+00 6.8338353649213673e+01 0.0000000000000000e+00 0.0000000000000000e+00 0.0000000000000000e+00 0.0000000000000000e+00  -6.3945774732936542e+01 -6.5383597027776517e+01 0.0000000000000000e+00 -6.5383597027776517e+01 1.2102044102879128e+02 0.0000000000000000e+00 0.0000000000000000e+00 0.0000000000000000e+00 0.0000000000000000e+00  1.1599584455641516e+00 -2.2132748612224749e+01 0.0000000000000000e+00 -2.2132748612224749e+01 4.3599050070883450e+01 0.0000000000000000e+00 0.0000000000000000e+00 0.0000000000000000e+00 0.0000000000000000e+00  4.5354463642557647e+01 -2.5438705493077990e+01 0.0000000000000000e+00 -2.5438705493077990e+01 5.4405243186697916e-01 0.0000000000000000e+00 0.0000000000000000e+00 0.0000000000000000e+00 0.0000000000000000e+00  2.8570369193114271e+01 4.3352659013166628e+00 0.0000000000000000e+00 4.3352659013166628e+00 1.9552737373307881e+01 0.0000000000000000e+00 0.0000000000000000e+00 0.0000000000000000e+00 0.0000000000000000e+00  -5.0325320623371841e+00 -2.0391379719249024e+01 0.0000000000000000e+00 -2.0391379719249024e+01 7.2934940637879819e+01 0.0000000000000000e+00 0.0000000000000000e+00 0.0000000000000000e+00 0.0000000000000000e+00  -4.9490242518258505e+01 -9.3992837911471483e+01 0.0000000000000000e+00 -9.3992837911471483e+01 9.7670032183340155e+01 0.0000000000000000e+00 0.0000000000000000e+00 0.0000000000000000e+00 0.0000000000000000e+00  -1.1929622709663479e+02 -5.0197459425472587e+01 0.0000000000000000e+00 -5.0197459425472587e+01 1.4751034168843458e+02 0.0000000000000000e+00 0.0000000000000000e+00 0.0000000000000000e+00 0.0000000000000000e+00  -5.3808140869401335e+01 -2.6528798843486239e+01 0.0000000000000000e+00 -2.6528798843486239e+01 1.0290018481533596e+02 0.0000000000000000e+00 0.0000000000000000e+00 0.0000000000000000e+00 0.0000000000000000e+00  2.7768749584674602e+01 -5.4221379239990512e+01 0.0000000000000000e+00 -5.4221379239990512e+01 1.7604601660566452e+01 0.0000000000000000e+00 0.0000000000000000e+00 0.0000000000000000e+00 0.0000000000000000e+00  2.5509674629764426e+01 -6.3221930679656985e+01 0.0000000000000000e+00 -6.3221930679656985e+01 7.3061091180869306e+00 0.0000000000000000e+00 0.0000000000000000e+00 0.0000000000000000e+00 0.0000000000000000e+00  5.7896993842147964e+01 1.4793633885754064e+01 0.0000000000000000e+00 1.4793633885754064e+01 -1.3608098152886363e+01 0.0000000000000000e+00 0.0000000000000000e+00 0.0000000000000000e+00 0.0000000000000000e+00  1.1107216397200206e+02 3.5251709164012922e+01 0.0000000000000000e+00 3.5251709164012922e+01 -7.4843804652105121e+01 0.0000000000000000e+00 0.0000000000000000e+00 0.0000000000000000e+00 0.0000000000000000e+00  8.7208331444072329e+01 -2.7904629234838145e+00 0.0000000000000000e+00 -2.7904629234838145e+00 -3.8701307846416547e+01 0.0000000000000000e+00 0.0000000000000000e+00 0.0000000000000000e+00 0.0000000000000000e+00  3.5270591942108972e+01 -1.1809052089401057e+01 0.0000000000000000e+00 -1.1809052089401057e+01 1.2999718995377947e+01 0.0000000000000000e+00 0.0000000000000000e+00 0.0000000000000000e+00 0.0000000000000000e+00  2.2826707952913353e+01 -8.3632540519412357e-01 0.0000000000000000e+00 -8.3632540519412357e-01 1.6811178041224036e+01 0.0000000000000000e+00 0.0000000000000000e+00 0.0000000000000000e+00 0.0000000000000000e+00  2.3105202777058260e+01 -1.5440978839214023e+00 0.0000000000000000e+00 -1.5440978839214023e+00 2.4606285355546255e+01 0.0000000000000000e+00 0.0000000000000000e+00 0.0000000000000000e+00 0.0000000000000000e+00  -5.2210224021523977e+01 -3.9894518671344684e+01 0.0000000000000000e+00 -3.9894518671344684e+01 8.6153636454112871e+01 0.0000000000000000e+00 0.0000000000000000e+00 0.0000000000000000e+00 0.0000000000000000e+00  -6.9040916826794287e+01 -7.4103012526880391e+01 0.0000000000000000e+00 -7.4103012526880391e+01 1.0031871907746812e+02 0.0000000000000000e+00 0.0000000000000000e+00 0.0000000000000000e+00 0.0000000000000000e+00  -6.6187991387982535e+01 -3.4978294345082553e+01 0.0000000000000000e+00 -3.4978294345082553e+01 1.0322621836978158e+02 0.0000000000000000e+00 0.0000000000000000e+00 0.0000000000000000e+00 0.0000000000000000e+00  1.8234679461791469e+01 -3.7765656449482535e+01 0.0000000000000000e+00 -3.7765656449482535e+01 2.4013190396004671e+01 0.0000000000000000e+00 0.0000000000000000e+00 0.0000000000000000e+00 0.0000000000000000e+00  2.2726370929448525e+01 -8.2388064726338285e+01 0.0000000000000000e+00 -8.2388064726338285e+01 -8.5963469988255277e+00 0.0000000000000000e+00 0.0000000000000000e+00 0.0000000000000000e+00 0.0000000000000000e+00  6.1891301213395124e+01 2.7933407773832297e-01 0.0000000000000000e+00 2.7933407773832297e-01 -2.1701819917963320e+01 0.0000000000000000e+00 0.0000000000000000e+00 0.0000000000000000e+00 0.0000000000000000e+00  1.2925288607978550e+02 4.9521848938524563e+01 0.0000000000000000e+00 4.9521848938524563e+01 -8.4926840361617764e+01 0.0000000000000000e+00 0.0000000000000000e+00 0.0000000000000000e+00 0.0000000000000000e+00  1.1854526098361092e+02 -8.2042382850178246e+00 0.0000000000000000e+00 -8.2042382850178246e+00 -7.2780993435680656e+01 0.0000000000000000e+00 0.0000000000000000e+00 0.0000000000000000e+00 0.0000000000000000e+00  4.3125332208925933e+01 -2.8337901518240628e+01 0.0000000000000000e+00 -2.8337901518240628e+01 -4.7596990808185904e+00 0.0000000000000000e+00 0.0000000000000000e+00 0.0000000000000000e+00 0.0000000000000000e+00  2.7871098635005389e+01 -4.4531120971763629e+00 0.0000000000000000e+00 -4.4531120971763629e+00 7.1049904579454335e+00 0.0000000000000000e+00 0.0000000000000000e+00 0.0000000000000000e+00 0.0000000000000000e+00  1.4531407531420436e+01 -3.6759118147530518e+00 0.0000000000000000e+00 -3.6759118147530518e+00 4.2532472683649722e+01 0.0000000000000000e+00 0.0000000000000000e+00 0.0000000000000000e+00 0.0000000000000000e+00  -1.1753004855739174e+01 -1.7939174842831768e+01 0.0000000000000000e+00 -1.7939174842831768e+01 5.1128335765247400e+01 0.0000000000000000e+00 0.0000000000000000e+00 0.0000000000000000e+00 0.0000000000000000e+00  -2.0583711375703079e+01 -1.9840964901048153e+01 0.0000000000000000e+00 -1.9840964901048153e+01 6.1397512302630787e+01 0.0000000000000000e+00 0.0000000000000000e+00 0.0000000000000000e+00 0.0000000000000000e+00  3.6110149312806399e+01 -6.9756778765611912e+01 0.0000000000000000e+00 -6.9756778765611912e+01 9.4136336613993699e+00 0.0000000000000000e+00 0.0000000000000000e+00 0.0000000000000000e+00 0.0000000000000000e+00  1.7130245732549728e+01 -9.7085698168068546e+01 0.0000000000000000e+00 -9.7085698168068546e+01 -6.3923097821334496e+00 0.0000000000000000e+00 0.0000000000000000e+00 0.0000000000000000e+00 0.0000000000000000e+00  8.2727598003590117e+01 9.1401730834490706e+00 0.0000000000000000e+00 9.1401730834490706e+00 -4.6382350007206632e+01 0.0000000000000000e+00 0.0000000000000000e+00 0.0000000000000000e+00 0.0000000000000000e+00  1.3059977319001965e+02 1.7566424960503102e+01 0.0000000000000000e+00 1.7566424960503102e+01 -9.5537271044851082e+01 0.0000000000000000e+00 0.0000000000000000e+00 0.0000000000000000e+00 0.0000000000000000e+00  8.6481867185386363e+01 -4.8052695541059734e+01 0.0000000000000000e+00 -4.8052695541059734e+01 -4.9506292381529256e+01 0.0000000000000000e+00 0.0000000000000000e+00 0.0000000000000000e+00 0.0000000000000000e+00  9.6212927772227967e+00 -1.0089993929711783e+01 0.0000000000000000e+00 -1.0089993929711783e+01 1.8485579340523330e+01 0.0000000000000000e+00 0.0000000000000000e+00 0.0000000000000000e+00 0.0000000000000000e+00  2.7111854638417469e+01 -5.1752202491691728e+00 0.0000000000000000e+00 -5.1752202491691728e+00 8.0461803044631228e+00 0.0000000000000000e+00 0.0000000000000000e+00 0.0000000000000000e+00 0.0000000000000000e+00  3.8970114717324634e+01 2.3742360363536985e+01 0.0000000000000000e+00 2.3742360363536985e+01 -4.2561530589220729e+00 0.0000000000000000e+00 0.0000000000000000e+00 0.0000000000000000e+00 0.0000000000000000e+00  7.2979090053023896e+01 2.3285779868557622e+01 0.0000000000000000e+00 2.3285779868557622e+01 -4.4194782171401322e+01 0.0000000000000000e+00 0.0000000000000000e+00 0.0000000000000000e+00 0.0000000000000000e+00  1.1502400581859573e+02 -2.4054646374368662e+01 0.0000000000000000e+00 -2.4054646374368662e+01 -9.6725614631369965e+01 0.0000000000000000e+00 0.0000000000000000e+00 0.0000000000000000e+00 0.0000000000000000e+00  1.0778409162577729e+02 -4.1924438770165928e+01 0.0000000000000000e+00 -4.1924438770165928e+01 -7.2780538508839385e+01 0.0000000000000000e+00 0.0000000000000000e+00 0.0000000000000000e+00 0.0000000000000000e+00  2.5450228585308235e+01 4.1467559515913777e+01 0.0000000000000000e+00 4.1467559515913777e+01 6.8231131938865230e-01 0.0000000000000000e+00 0.0000000000000000e+00 0.0000000000000000e+00 0.0000000000000000e+00  1.3600113966007505e+01 3.9696732034840537e+01 0.0000000000000000e+00 3.9696732034840537e+01 1.7436273851682113e+01 0.0000000000000000e+00 0.0000000000000000e+00 0.0000000000000000e+00 0.0000000000000000e+00  -4.1443336765742764e+01 -3.2890100823144515e+00 0.0000000000000000e+00 -3.2890100823144515e+00 7.4009458335778987e+01 0.0000000000000000e+00 0.0000000000000000e+00 0.0000000000000000e+00 0.0000000000000000e+00  -1.0737164283988328e+02 4.0430203607155619e+01 0.0000000000000000e+00 4.0430203607155619e+01 1.2891895678840041e+02 0.0000000000000000e+00 0.0000000000000000e+00 0.0000000000000000e+00 0.0000000000000000e+00  -3.1518885794040163e+01 2.9291266159310659e+01 0.0000000000000000e+00 2.9291266159310659e+01 5.8501510274659225e+01 0.0000000000000000e+00 0.0000000000000000e+00 0.0000000000000000e+00 0.0000000000000000e+00  1.0828464579056735e+01 -1.8426312578866395e+00 0.0000000000000000e+00 -1.8426312578866395e+00 2.6344595121987854e+01 0.0000000000000000e+00 0.0000000000000000e+00 0.0000000000000000e+00 0.0000000000000000e+00  1.5109263181308750e+01 7.5481545652945414e-01 0.0000000000000000e+00 7.5481545652945414e-01 1.6013214171756630e+01 0.0000000000000000e+00 0.0000000000000000e+00 0.0000000000000000e+00 0.0000000000000000e+00  2.4729910623068154e+01 9.8753571541191612e+00 0.0000000000000000e+00 9.8753571541191612e+00 2.4813898339180507e-01 0.0000000000000000e+00 0.0000000000000000e+00 0.0000000000000000e+00 0.0000000000000000e+00  9.1710380443721178e+01 1.0007519592771729e+01 0.0000000000000000e+00 1.0007519592771729e+01 -6.0409494244840175e+01 0.0000000000000000e+00 0.0000000000000000e+00 0.0000000000000000e+00 0.0000000000000000e+00  1.2539657650311392e+02 -5.8496736007296832e+01 0.0000000000000000e+00 -5.8496736007296832e+01 -1.2506166394666874e+02 0.0000000000000000e+00 0.0000000000000000e+00 0.0000000000000000e+00 0.0000000000000000e+00  5.4256040717980113e+01 -4.3446587298255437e+01 0.0000000000000000e+00 -4.3446587298255437e+01 -4.4393949026944341e+01 0.0000000000000000e+00 0.0000000000000000e+00 0.0000000000000000e+00 0.0000000000000000e+00  2.4818173404724826e+00 -1.6219518509115126e+01 0.0000000000000000e+00 -1.6219518509115126e+01 1.3456624018958362e+01 0.0000000000000000e+00 0.0000000000000000e+00 0.0000000000000000e+00 0.0000000000000000e+00  -6.5000001641300443e+01 -3.7264683270883580e+01 0.0000000000000000e+00 -3.7264683270883580e+01 1.0958720534264724e+02 0.0000000000000000e+00 0.0000000000000000e+00 0.0000000000000000e+00 0.0000000000000000e+00  -1.8293423846230289e+02 4.2604077332771752e+01 0.0000000000000000e+00 4.2604077332771752e+01 1.9501810772958905e+02 0.0000000000000000e+00 0.0000000000000000e+00 0.0000000000000000e+00 0.0000000000000000e+00  -1.1346745247358722e+02 1.5472288129942632e+02 0.0000000000000000e+00 1.5472288129942632e+02 1.3225809363625424e+02 0.0000000000000000e+00 0.0000000000000000e+00 0.0000000000000000e+00 0.0000000000000000e+00  -2.7303092883890083e+00 -1.0639032819267999e+01 0.0000000000000000e+00 -1.0639032819267999e+01 2.6763192452394833e+01 0.0000000000000000e+00 0.0000000000000000e+00 0.0000000000000000e+00 0.0000000000000000e+00  -1.4513366361709981e+02 1.0812073491863075e+02 0.0000000000000000e+00 1.0812073491863075e+02 5.8561354656184701e+00 0.0000000000000000e+00 0.0000000000000000e+00 0.0000000000000000e+00 0.0000000000000000e+00  3.5791092488481331e+02 2.1700185039311984e+02 0.0000000000000000e+00 2.1700185039311984e+02 6.4271931731748637e+01 0.0000000000000000e+00 0.0000000000000000e+00 0.0000000000000000e+00 0.0000000000000000e+00  9.7029078592724218e+00 1.0893037998193526e+02 0.0000000000000000e+00 1.0893037998193526e+02 7.6089284561691191e+00 0.0000000000000000e+00 0.0000000000000000e+00 0.0000000000000000e+00 0.0000000000000000e+00  -4.5854320765105836e+00 -2.3303580780727245e+02 0.0000000000000000e+00 -2.3303580780727245e+02 1.6157217982365861e+00 0.0000000000000000e+00 0.0000000000000000e+00 0.0000000000000000e+00 0.0000000000000000e+00  9.1147899629918872e+00 1.5110019096192675e+01 0.0000000000000000e+00 1.5110019096192675e+01 -3.0345510891220407e+01 0.0000000000000000e+00 0.0000000000000000e+00 0.0000000000000000e+00 0.0000000000000000e+00  1.6691098222152938e+01 1.1253939884289690e+02 0.0000000000000000e+00 1.1253939884289690e+02 2.0706674062664185e+01 0.0000000000000000e+00 0.0000000000000000e+00 0.0000000000000000e+00 0.0000000000000000e+00  3.1268657410801847e+01 1.0237099025255419e+02 0.0000000000000000e+00 1.0237099025255419e+02 1.1040229871551613e+01 0.0000000000000000e+00 0.0000000000000000e+00 0.0000000000000000e+00 0.0000000000000000e+00  1.6393858355262712e+01 5.9380723495703428e+01 0.0000000000000000e+00 5.9380723495703428e+01 3.4638412256088486e+01 0.0000000000000000e+00 0.0000000000000000e+00 0.0000000000000000e+00 0.0000000000000000e+00  -2.5291112405643542e+01 7.8814806655576843e+00 0.0000000000000000e+00 7.8814806655576843e+00 1.5918460675523580e+00 0.0000000000000000e+00 0.0000000000000000e+00 0.0000000000000000e+00 0.0000000000000000e+00  -7.3013011909886156e+00 -1.0095463612819399e+01 0.0000000000000000e+00 -1.0095463612819399e+01 -1.2092682842220537e+01 0.0000000000000000e+00 0.0000000000000000e+00 0.0000000000000000e+00 0.0000000000000000e+00  2.7111001542799227e+00 2.7483530292021324e+01 0.0000000000000000e+00 2.7483530292021324e+01 3.1390087777720970e+00 0.0000000000000000e+00 0.0000000000000000e+00 0.0000000000000000e+00 0.0000000000000000e+00  1.6196911514230066e+00 2.3802079401419373e+01 0.0000000000000000e+00 2.3802079401419373e+01 1.3041836327308225e+00 0.0000000000000000e+00 0.0000000000000000e+00 0.0000000000000000e+00 0.0000000000000000e+00  2.4335421453335893e+00 2.2981711471280907e+01 0.0000000000000000e+00 2.2981711471280907e+01 2.9870654800024905e+00 0.0000000000000000e+00 0.0000000000000000e+00 0.0000000000000000e+00 0.0000000000000000e+00  -2.0940249483926801e+00 -3.2221747167432442e+00 0.0000000000000000e+00 -3.2221747167432442e+00 -4.7671473884060367e+00 0.0000000000000000e+00 0.0000000000000000e+00 0.0000000000000000e+00 0.0000000000000000e+00  2.1209522426624661e+00 -2.6552097203793252e+01 0.0000000000000000e+00 -2.6552097203793252e+01 6.0132964596856455e+00 0.0000000000000000e+00 0.0000000000000000e+00 0.0000000000000000e+00 0.0000000000000000e+00  -1.8656388045218426e+00 -2.2295695877864262e+01 0.0000000000000000e+00 -2.2295695877864262e+01 -2.3378155781242338e+00 0.0000000000000000e+00 0.0000000000000000e+00 0.0000000000000000e+00 0.0000000000000000e+00  1.1920831789403588e+01 1.0480803149370411e+01 0.0000000000000000e+00 1.0480803149370411e+01 1.1941366765793219e+01 0.0000000000000000e+00 0.0000000000000000e+00 0.0000000000000000e+00 0.0000000000000000e+00  7.9558715054411309e+00 -1.0191837705771030e+00 0.0000000000000000e+00 -1.0191837705771030e+00 8.3403152859875576e+00 0.0000000000000000e+00 0.0000000000000000e+00 0.0000000000000000e+00 0.0000000000000000e+00  -2.8787362876015713e+01 -9.7060492308863871e+01 0.0000000000000000e+00 -9.7060492308863871e+01 -1.4217636783356060e+01 0.0000000000000000e+00 0.0000000000000000e+00 0.0000000000000000e+00 0.0000000000000000e+00  1.2504633312736875e+01 -2.8477788509448139e+01 0.0000000000000000e+00 -2.8477788509448139e+01 1.2286773193350028e+01 0.0000000000000000e+00 0.0000000000000000e+00 0.0000000000000