<?xml version="1.0"?>
<VTKFile type="UnstructuredGrid"  version="0.1"  >
<UnstructuredGrid>
<Piece  NumberOfPoints="4978" NumberOfCells="9630">
<Points>
<DataArray  type="Float64"  NumberOfComponents="3"  format="ascii">0 1.5 0  0 0 0  0.06190941752361886 0 0  0.06190941752361886 0.02304324263930277 0  0.07687367483109155 0.06663263502519032 0  0.1051805799723963 0.1030013474942385 0  0.1437626405485843 0.128208265731708 0  0.1884388916338735 0.1395218290209338 0  0.2343679681997119 0.1357160372315063 0  0.2765727421371398 0.117203306956754 0  0.3104796713154951 0.0859897797765535 0  0.3324144138380889 0.04545792568865569 0  0.34 0 0  0.4722134970410927 0 0  0.4722134970410927 0.02388743731615415 0  0.4894717723551502 0.0684361811740563 0  0.5216574972706967 0.1037422395464312 0  0.5644238112906292 0.1250373336124665 0  0.6119948867302293 0.1294454429183545 0  0.6579459862509499 0.1163712278761581 0  0.6960711592386857 0.08758043367405244 0  0.7212213898225662 0.04696141660432988 0  0.73 0 0  0.85 0 0  0.857341522555727 0.04635254915624212 0  0.8786474508437579 0.08816778784387098 0  0.9118322121561291 0.1213525491562421 0  0.9536474508437579 0.142658477444273 0  1 0.15 0  1.046352549156242 0.142658477444273 0  1.088167787843871 0.1213525491562421 0  1.121352549156242 0.08816778784387097 0  1.142658477444273 0.04635254915624211 0  1.15 0 0  1.461909417523619 0 0  1.461909417523619 0.02304324263930277 0  1.476873674831092 0.06663263502519032 0  1.505180579972396 0.1030013474942385 0  1.543762640548584 0.128208265731708 0  1.588438891633874 0.1395218290209338 0  1.634367968199712 0.1357160372315063 0  1.67657274213714 0.117203306956754 0  1.710479671315495 0.0859897797765535 0  1.732414413838089 0.04545792568865569 0  1.74 0 0  1.78 0 0  1.789134456098646 0.04592201188381079 0  1.815147186257614 0.08485281374238571 0  1.854077988116189 0.1108655439013544 0  1.9 0.12 0  1.945922011883811 0.1108655439013544 0  1.984852813742386 0.08485281374238569 0  2.010865543901355 0.04592201188381077 0  2.02 0 0  2.161909417523619 0 0  2.161909417523619 0.02304324263930277 0  2.176873674831092 0.06663263502519032 0  2.205180579972396 0.1030013474942385 0  2.243762640548584 0.128208265731708 0  2.288438891633873 0.1395218290209338 0  2.334367968199712 0.1357160372315063 0  2.37657274213714 0.117203306956754 0  2.410479671315495 0.0859897797765535 0  2.432414413838089 0.04545792568865569 0  2.44 0 0  2.472213497041093 0 0  2.472213497041093 0.02388743731615415 0  2.48947177235515 0.0684361811740563 0  2.521657497270697 0.1037422395464312 0  2.564423811290629 0.1250373336124665 0  2.611994886730229 0.1294454429183545 0  2.65794598625095 0.1163712278761581 0  2.696071159238686 0.08758043367405244 0  2.721221389822567 0.04696141660432988 0  2.73 0 0  3 0 0  3 1.5 0  0 0.75 0  3 0.75 0  1.5 1.5 0  0 0.375 0  0 0.1875 0  0 0.09375 0  0.75 1.5 0  2.25 1.5 0  1.137279452465634 0.8667483509386543 0  2.055384907633385 0.8149748422668953 0  0.5545701656450307 0.9454298343549693 0  2.545804583542266 1.045804583542266 0  2.462951104370831 0.5854482317237805 0  1.6063536999151 1.018574336065804 0  0.7683179692414909 0.5511078775270282 0  1.647896012796697 0.5780189144999826 0  1.875 1.5 0  0.3683226130580748 0.5893782185394094 0  0.375 1.5 0  0 1.125 0  3 0.375 0  1.125 1.5 0  3 1.125 0  2.625 1.5 0  1.247216233241016 0.4851891764902285 0  0.8779404074027722 1.143194262378568 0  1.992337703792022 0.4642129848858538 0  2.200035536160075 1.144037289792772 0  1.3125 1.206118267007311 0  1.882280687299076 1.18026905614258 0  0.8375010042452264 0.8437030129736524 0  0.2703628106324028 0.8673582108832857 0  0.336944444033578 1.181320038574892 0  1.424720841531434 0.7792108746582741 0  2.763716218670896 0.5625 0  0.6112325230261646 1.216037756380734 0  2.429292395855053 1.293345775631689 0  2.798691155259055 0.9375 0  2.340750225085827 0.8450755885956063 0  2.74506315455788 1.24506315455788 0  0.4115012634770826 0.3359864655288552 0  1.6875 1.5 0  1.553212834656815 1.259295117559057 0  1.783849920010049 0.8130750647527071 0  2.590242300399914 0.800172794523538 0  2.206538789959823 0.6067588023913982 0  1.022769083327432 0.627137676743421 0  2.0625 1.5 0  2.566013274303806 0.3667751817948443 0  2.317230353528816 0.3853650267397287 0  0.9546600707351991 0.3912757388497677 0  1.76490060939521 0.3540000691256479 0  1.398169292756645 0.3089248951275104 0  0.1875 1.5 0  0.6961815191548208 0.3380429757712475 0  0.6390751493076395 0.7361434669345621 0  1.385952842918209 0.9972233609662619 0  1.082019261833385 1.265823315390121 0  2.784258672215756 0.3048233224522298 0  0 0.5625 0  0.2130557952202133 0.4325455696870932 0  2.110276358430479 0.2903936515686117 0  0 1.3125 0  0.5618175915722093 0.5022778936897083 0  1.438605690073396 0.5702366817214194 0  1.851778102902867 0.6169409446553686 0  0.9375 1.5 0  1.918499765346388 0.9737703250858507 0  1.066617221574711 1.060327143126178 0  0.17830064634795 0.65625 0  1.139464543633635 0.3182162642668528 0  1.214887260891528 0.6824917486258804 0  0.4470960700565646 0.7803305254813445 0  2.056073894593081 1.292965518236122 0  0.7800417460951754 1.309431349558015 0  0.7102942521579887 1.054059105222724 0  2.772203778896419 0.7508393899039921 0  3 0.9375 0  2.4375 1.5 0  0.5625 1.5 0  3 0.5625 0  1.3125 1.5 0  0 0.9375 0  3 1.3125 0  2.8125 1.5 0  3 0.1875 0  1.74009613212014 1.312845810865967 0  0.1858279553328271 1.04932632064409 0  1.582414108002925 0.3243096672004901 0  0.4576542986122824 1.328517530191622 0  1.30595470876181 0 0  0.1616828829631953 1.229471150973137 0  1.600689448835705 0.8342777580615786 0  2.184954406689295 0.9543424310663166 0  2.356848459734244 1.033731425282726 0  2.249618867339344 1.318565528322325 0  2.031012140730151 0.6383085966483963 0  1.264473591492607 0.1926369230867345 0  1.93294708275428 0.2969945700235964 0  1.406271966518558 1.353045118606616 0  0.2855042944080262 1.351202341158466 0  2.163692386827529 0.4469681835123645 0  2.058709899218631 1.05982604745508 0  1.21875 1.361760465218127 0  1.232585115983139 1.060656719142284 0  1.682328919476849 1.161572426192166 0  0.4864612871934715 1.100927295036068 0  2.842393003195402 0.1547034389615206 0  1.901710724058898 1.340659870484523 0  2.578488906869203 1.212378831230944 0  0.346730023619794 1.013455011579226 0  1.758789788261688 0.970834021568154 0  0.9209577900333827 0.984909924281538 0  2.461973640748163 0.2490632223012221 0  2.833434714842781 1.102015011431888 0  1.485476187845101 1.118115752354218 0  0.7869575052851041 0.2127716822913992 0  1.091585464669657 0.4673676525872368 0  0.9308375558444295 1.286291202675726 0  2.609275627299536 0.5207885309723005 0  2.859418780372727 0.4404724026784034 0  0.1368795735450182 0.2913992261536034 0  0.5088670694303536 0.6431238265444117 0  0.9924988599062848 0.7887715626383616 0  0.8674753477047706 0.6821390867986818 0  0.6993572585883594 0.9038049302516018 0  1.53924450853783 0.6818717864694561 0  1.27954362181495 0.818196911265721 0  2.885754890315292 0.65625 0  0.1199579452929171 0.84375 0  0.3101130847613819 0.7251157056441525 0  2.683488575489726 1.10528265125029 0  2.637912450120847 1.350340704724588 0  0.65625 1.387568746661148 0  2.204969505432462 0.7645924845263576 0  2.34230217156612 0.6870332922078795 0  2.458336421316689 0.930056573232228 0  1.547170662421109 0.4687109428674099 0  0.55426355401875 0.2785752421136156 0  1.927690911684502 0.7425770788416013 0  2.650983472818039 0.6639703826486528 0  0.2807744135836687 0.2731407085328489 0  2.697063502273202 0.4130460425434029 0  1.768721210125562 0.4985606178023466 0  1.59375 1.394491048145999 0  1.03125 1.39617417476255 0  2.649124789533757 0.9376608889715211 0  2.899345577629528 0.84375 0  2.448792339301353 1.151333513094988 0  2.455516477512143 0.7671738041202795 0  0.1479512725554237 1.367277900867101 0  1.733007556765436 0.6856365299097277 0  2.865 0 0  0.407900401917371 0.1920322062602331 0  1.482893533441057 0.9020086108979886 0  2.902194538181383 1.21875 0  2.860324471164851 1.360324471164851 0  0.9128790560808855 0.5311054613533476 0  0.7396036279203969 1.183264973390871 0  1.379392725427689 0.4456149894503371 0  0.8305263666170877 0.339868595109382 0  2.352639297837627 1.399880277695907 0  2.15625 1.5 0  2.32277762299786 1.203473773731512 0  1.818471673600783 0.235727380341035 0  1.269129800285538 0.3222823294390822 0  2.329228807632851 0.5297324129610972 0  0.430777275012463 0.469645907614299 0  1.390502090335328 0.1630587681988043 0  1.149408636841162 1.157447166816889 0  1.687853147042319 0.2519031106491252 0  0.3941048876243997 0.8956837842542459 0  1.877835046604575 0.410724628626283 0  1.348230251479045 0.6691802479050837 0  2.336954765206726 0.2613063289913201 0  2.514033953321691 1.393470229958569 0  0 0.46875 0  0.1287800079303892 0.5340043503292357 0  2.441328451749267 0.3721441168812449 0  0.9333932382689634 0.2670516659043625 0  1.13959172768211 0.5827503401695603 0  0.8703665929291606 1.395134656069543 0  1.240468926246127 0.9364063612525604 0  1.433475419570003 1.229904687600933 0  1.020534477629395 0.9101139083191684 0  1.108777781305164 0.7462713331880694 0  0.6468125623079457 0.6038935958199032 0  1.665312060212151 0.428962863572448 0  0.2512528931669099 0.5500044694745148 0  2.66971919386773 0.2450375495263612 0  2.901855502368762 0.2640467328343441 0  2.063534245742155 0.9373123558679215 0  2.031795413587333 0.1972457754676831 0  1.836924180675512 1.065887991891963 0  1.001601941364679 1.16852535211421 0  0.8051266927803291 0.9581030042697194 0  0.7620228346493961 0.7461373576581022 0  3 1.03125 0  2.084817260746984 1.176705869274554 0  2.085981885570153 0.5347538843754811 0  1.496744890324478 0.239335226969819 0  1.894594308711337 0.8570406362709689 0  1.78125 1.5 0  2.109375 1.394928085212741 0  2.71875 1.5 0  0.4943575340553394 1.217544978302146 0  0.5937185858435849 1.055241883498284 0  2.227680725187669 0.3075299344665331 0  0.5158109084499103 0.3891628929402524 0  1.96875 1.5 0  0.6036564600183
[...]
<PointData  Tensors="f_1442"> 
<DataArray  type="Float64"  Name="f_1442"  NumberOfComponents="9" format="ascii">-5.1862566973132163e+00 -4.6886434595023054e+00 0.0000000000000000e+00 -4.6886434595023054e+00 -1.3416934075957046e+01 0.0000000000000000e+00 0.0000000000000000e+00 0.0000000000000000e+00 0.0000000000000000e+00  3.4084848729649607e+01 3.2345408122490604e+00 0.0000000000000000e+00 3.2345408122490604e+00 2.5931034124249802e+01 0.0000000000000000e+00 0.0000000000000000e+00 0.0000000000000000e+00 0.0000000000000000e+00  2.2063966987071414e+01 3.5484944587279110e+00 0.0000000000000000e+00 3.5484944587279110e+00 2.9433203181469839e+01 0.0000000000000000e+00 0.0000000000000000e+00 0.0000000000000000e+00 0.0000000000000000e+00  5.1815901790201771e+01 1.9151185148732843e+01 0.0000000000000000e+00 1.9151185148732843e+01 8.4321605067778229e+00 0.0000000000000000e+00 0.0000000000000000e+00 0.0000000000000000e+00 0.0000000000000000e+00  8.4337920475731096e+01 1.8632739348475809e+01 0.0000000000000000e+00 1.8632739348475809e+01 -4.5629615940884605e+01 0.0000000000000000e+00 0.0000000000000000e+00 0.0000000000000000e+00 0.0000000000000000e+00  1.3257704770792256e+02 -1.0199372597116458e+01 0.0000000000000000e+00 -1.0199372597116458e+01 -8.2282633495568362e+01 0.0000000000000000e+00 0.0000000000000000e+00 0.0000000000000000e+00 0.0000000000000000e+00  8.8709143851308241e+01 -2.1778699561547469e+01 0.0000000000000000e+00 -2.1778699561547469e+01 -3.1261997908583922e+01 0.0000000000000000e+00 0.0000000000000000e+00 0.0000000000000000e+00 0.0000000000000000e+00  4.1400260033922393e+01 6.5434732122046086e+01 0.0000000000000000e+00 6.5434732122046086e+01 1.6516476285812381e+01 0.0000000000000000e+00 0.0000000000000000e+00 0.0000000000000000e+00 0.0000000000000000e+00  4.9050109704222152e+01 9.1458243266384414e+01 0.0000000000000000e+00 9.1458243266384414e+01 -8.0343860800484688e+00 0.0000000000000000e+00 0.0000000000000000e+00 0.0000000000000000e+00 0.0000000000000000e+00  9.5690857502605144e+00 1.5007859350126813e+01 0.0000000000000000e+00 1.5007859350126813e+01 6.4069773920641964e+01 0.0000000000000000e+00 0.0000000000000000e+00 0.0000000000000000e+00 0.0000000000000000e+00  -1.3119093190174777e+02 7.8960069816950210e+01 0.0000000000000000e+00 7.8960069816950210e+01 1.6517759267094883e+02 0.0000000000000000e+00 0.0000000000000000e+00 0.0000000000000000e+00 0.0000000000000000e+00  -1.2100449674529710e+02 1.3730706963381803e+02 0.0000000000000000e+00 1.3730706963381803e+02 1.5568952706464754e+02 0.0000000000000000e+00 0.0000000000000000e+00 0.0000000000000000e+00 0.0000000000000000e+00  2.6217648299181278e+01 1.0213396289442082e+01 0.0000000000000000e+00 1.0213396289442082e+01 4.8585282643634770e+01 0.0000000000000000e+00 0.0000000000000000e+00 0.0000000000000000e+00 0.0000000000000000e+00  2.6028466305827624e+01 -1.7364710467153683e+00 0.0000000000000000e+00 -1.7364710467153683e+00 1.5124690177441678e+01 0.0000000000000000e+00 0.0000000000000000e+00 0.0000000000000000e+00 0.0000000000000000e+00  4.7232751601029534e+01 1.7382955300804401e+01 0.0000000000000000e+00 1.7382955300804401e+01 5.3731554575061073e+00 0.0000000000000000e+00 0.0000000000000000e+00 0.0000000000000000e+00 0.0000000000000000e+00  3.6344683066110591e+01 2.5043114491652958e+01 0.0000000000000000e+00 2.5043114491652958e+01 1.0328806995587051e+01 0.0000000000000000e+00 0.0000000000000000e+00 0.0000000000000000e+00 0.0000000000000000e+00  -7.2582346791771727e+01 3.7250934300560537e+01 0.0000000000000000e+00 3.7250934300560537e+01 1.3314090350869060e+02 0.0000000000000000e+00 0.0000000000000000e+00 0.0000000000000000e+00 0.0000000000000000e+00  -6.0709996224512459e+01 8.5399173489512478e+01 0.0000000000000000e+00 8.5399173489512478e+01 1.1350979376321619e+02 0.0000000000000000e+00 0.0000000000000000e+00 0.0000000000000000e+00 0.0000000000000000e+00  6.6553762522258886e+00 -5.3851464101034452e+00 0.0000000000000000e+00 -5.3851464101034452e+00 7.3963036987069245e+01 0.0000000000000000e+00 0.0000000000000000e+00 0.0000000000000000e+00 0.0000000000000000e+00  -8.3220458627562763e+01 -8.0397076655699905e+01 0.0000000000000000e+00 -8.0397076655699905e+01 1.4496942631276744e+02 0.0000000000000000e+00 0.0000000000000000e+00 0.0000000000000000e+00 0.0000000000000000e+00  -5.1725324889257678e+00 -2.6311761190379624e+01 0.0000000000000000e+00 -2.6311761190379624e+01 5.1354654940842593e+01 0.0000000000000000e+00 0.0000000000000000e+00 0.0000000000000000e+00 0.0000000000000000e+00  4.6612503026028016e+01 -2.7091344541904814e+01 0.0000000000000000e+00 -2.7091344541904814e+01 -1.4861791519431258e+00 0.0000000000000000e+00 0.0000000000000000e+00 0.0000000000000000e+00 0.0000000000000000e+00  2.8490069932006126e+01 5.4975040761748435e+00 0.0000000000000000e+00 5.4975040761748435e+00 1.7894599071227169e+01 0.0000000000000000e+00 0.0000000000000000e+00 0.0000000000000000e+00 0.0000000000000000e+00  -4.3370706393198155e+00 -2.8006397050161386e+01 0.0000000000000000e+00 -2.8006397050161386e+01 8.1122445982076869e+01 0.0000000000000000e+00 0.0000000000000000e+00 0.0000000000000000e+00 0.0000000000000000e+00  -7.2119634997753053e+01 -1.1740471669446097e+02 0.0000000000000000e+00 -1.1740471669446097e+02 1.1562246273122895e+02 0.0000000000000000e+00 0.0000000000000000e+00 0.0000000000000000e+00 0.0000000000000000e+00  -1.6018529006159446e+02 -6.5706327212023552e+01 0.0000000000000000e+00 -6.5706327212023552e+01 1.8052542419787014e+02 0.0000000000000000e+00 0.0000000000000000e+00 0.0000000000000000e+00 0.0000000000000000e+00  -6.8760747754079091e+01 -3.0961769788854735e+01 0.0000000000000000e+00 -3.0961769788854735e+01 1.2176517086021970e+02 0.0000000000000000e+00 0.0000000000000000e+00 0.0000000000000000e+00 0.0000000000000000e+00  2.1100248307215786e+01 -5.8477291302743339e+01 0.0000000000000000e+00 -5.8477291302743339e+01 2.2787276191067665e+01 0.0000000000000000e+00 0.0000000000000000e+00 0.0000000000000000e+00 0.0000000000000000e+00  1.9083256594232584e+01 -7.9297100490378753e+01 0.0000000000000000e+00 -7.9297100490378753e+01 7.8273757976291272e+00 0.0000000000000000e+00 0.0000000000000000e+00 0.0000000000000000e+00 0.0000000000000000e+00  6.5179350167013382e+01 2.0351690422055420e+01 0.0000000000000000e+00 2.0351690422055420e+01 -2.0630027397637246e+01 0.0000000000000000e+00 0.0000000000000000e+00 0.0000000000000000e+00 0.0000000000000000e+00  1.2850639693814773e+02 4.9656971390108559e+01 0.0000000000000000e+00 4.9656971390108559e+01 -9.3508073992233165e+01 0.0000000000000000e+00 0.0000000000000000e+00 0.0000000000000000e+00 0.0000000000000000e+00  8.7858354724922080e+01 -3.8830711231056121e+00 0.0000000000000000e+00 -3.8830711231056121e+00 -4.2197668085333063e+01 0.0000000000000000e+00 0.0000000000000000e+00 0.0000000000000000e+00 0.0000000000000000e+00  3.1874284182459736e+01 -9.8162218498264178e+00 0.0000000000000000e+00 -9.8162218498264178e+00 1.3038341040459487e+01 0.0000000000000000e+00 0.0000000000000000e+00 0.0000000000000000e+00 0.0000000000000000e+00  2.1050138394503037e+01 -1.4056953963715946e+00 0.0000000000000000e+00 -1.4056953963715946e+00 1.4641690062816044e+01 0.0000000000000000e+00 0.0000000000000000e+00 0.0000000000000000e+00 0.0000000000000000e+00  1.7469012313783455e+01 1.8000196515172218e-01 0.0000000000000000e+00 1.8000196515172218e-01 2.9671881603397548e+01 0.0000000000000000e+00 0.0000000000000000e+00 0.0000000000000000e+00 0.0000000000000000e+00  -6.6609690989269581e+01 -4.5404015523014920e+01 0.0000000000000000e+00 -4.5404015523014920e+01 1.0280743019897507e+02 0.0000000000000000e+00 0.0000000000000000e+00 0.0000000000000000e+00 0.0000000000000000e+00  -9.2875633362759913e+01 -1.0204010050363893e+02 0.0000000000000000e+00 -1.0204010050363893e+02 1.1748343060217498e+02 0.0000000000000000e+00 0.0000000000000000e+00 0.0000000000000000e+00 0.0000000000000000e+00  -8.5251755605728462e+01 -4.6688175411865018e+01 0.0000000000000000e+00 -4.6688175411865018e+01 1.1981191383749834e+02 0.0000000000000000e+00 0.0000000000000000e+00 0.0000000000000000e+00 0.0000000000000000e+00  1.7251354966174155e+01 -3.9562088056820251e+01 0.0000000000000000e+00 -3.9562088056820251e+01 2.3851515686908293e+01 0.0000000000000000e+00 0.0000000000000000e+00 0.0000000000000000e+00 0.0000000000000000e+00  1.3702254074786548e+01 -1.0266320720872332e+02 0.0000000000000000e+00 -1.0266320720872332e+02 -5.6385575769575667e+00 0.0000000000000000e+00 0.0000000000000000e+00 0.0000000000000000e+00 0.0000000000000000e+00  7.0786362069792688e+01 1.0476409879931694e+00 0.0000000000000000e+00 1.0476409879931694e+00 -2.8341832620098504e+01 0.0000000000000000e+00 0.0000000000000000e+00 0.0000000000000000e+00 0.0000000000000000e+00  1.5157674686904042e+02 6.2970100652411205e+01 0.0000000000000000e+00 6.2970100652411205e+01 -1.0989375562269079e+02 0.0000000000000000e+00 0.0000000000000000e+00 0.0000000000000000e+00 0.0000000000000000e+00  1.2881048813583035e+02 -4.0132299297975429e+00 0.0000000000000000e+00 -4.0132299297975429e+00 -8.4276638469590708e+01 0.0000000000000000e+00 0.0000000000000000e+00 0.0000000000000000e+00 0.0000000000000000e+00  4.1005941743217939e+01 -2.7925739209897976e+01 0.0000000000000000e+00 -2.7925739209897976e+01 -5.1065836722786671e+00 0.0000000000000000e+00 0.0000000000000000e+00 0.0000000000000000e+00 0.0000000000000000e+00  2.5485995376393113e+01 -4.0575842463028531e+00 0.0000000000000000e+00 -4.0575842463028531e+00 8.0089776929387018e+00 0.0000000000000000e+00 0.0000000000000000e+00 0.0000000000000000e+00 0.0000000000000000e+00  1.2402495672317068e+01 -3.6711728085547213e+00 0.0000000000000000e+00 -3.6711728085547213e+00 4.2805223592348597e+01 0.0000000000000000e+00 0.0000000000000000e+00 0.0000000000000000e+00 0.0000000000000000e+00  -2.0490185907746582e+01 -2.1189016789254158e+01 0.0000000000000000e+00 -2.1189016789254158e+01 5.7582123823728516e+01 0.0000000000000000e+00 0.0000000000000000e+00 0.0000000000000000e+00 0.0000000000000000e+00  -3.4343205246172431e+01 -2.4524761842285361e+01 0.0000000000000000e+00 -2.4524761842285361e+01 7.4076739092993776e+01 0.0000000000000000e+00 0.0000000000000000e+00 0.0000000000000000e+00 0.0000000000000000e+00  3.4023591685921176e+01 -8.0156507123177661e+01 0.0000000000000000e+00 -8.0156507123177661e+01 1.3856285946335149e+01 0.0000000000000000e+00 0.0000000000000000e+00 0.0000000000000000e+00 0.0000000000000000e+00  1.1858215587514543e+01 -1.1960039538179544e+02 0.0000000000000000e+00 -1.1960039538179544e+02 -9.4941625614279399e+00 0.0000000000000000e+00 0.0000000000000000e+00 0.0000000000000000e+00 0.0000000000000000e+00  9.7419749701985182e+01 1.4456914494973171e+01 0.0000000000000000e+00 1.4456914494973171e+01 -6.2226078137001352e+01 0.0000000000000000e+00 0.0000000000000000e+00 0.0000000000000000e+00 0.0000000000000000e+00  1.5386515131414549e+02 2.6203144315682536e+01 0.0000000000000000e+00 2.6203144315682536e+01 -1.1976131252882368e+02 0.0000000000000000e+00 0.0000000000000000e+00 0.0000000000000000e+00 0.0000000000000000e+00  9.0093721506368368e+01 -5.0352288906883352e+01 0.0000000000000000e+00 -5.0352288906883352e+01 -5.5185383714839681e+01 0.0000000000000000e+00 0.0000000000000000e+00 0.0000000000000000e+00 0.0000000000000000e+00  8.9815698315633039e+00 -9.5085324728905700e+00 0.0000000000000000e+00 -9.5085324728905700e+00 1.6658735274049260e+01 0.0000000000000000e+00 0.0000000000000000e+00 0.0000000000000000e+00 0.0000000000000000e+00  2.6378303744581093e+01 -5.1179235104892573e+00 0.0000000000000000e+00 -5.1179235104892573e+00 7.1288379990134700e+00 0.0000000000000000e+00 0.0000000000000000e+00 0.0000000000000000e+00 0.0000000000000000e+00  3.8357631116643098e+01 2.3335985187940278e+01 0.0000000000000000e+00 2.3335985187940278e+01 -4.4508916183702611e+00 0.0000000000000000e+00 0.0000000000000000e+00 0.0000000000000000e+00 0.0000000000000000e+00  7.3456961917568066e+01 2.5242755503886535e+01 0.0000000000000000e+00 2.5242755503886535e+01 -4.6801207398963555e+01 0.0000000000000000e+00 0.0000000000000000e+00 0.0000000000000000e+00 0.0000000000000000e+00  1.2993653820220030e+02 -3.4212772240880831e+01 0.0000000000000000e+00 -3.4212772240880831e+01 -1.1467413588417809e+02 0.0000000000000000e+00 0.0000000000000000e+00 0.0000000000000000e+00 0.0000000000000000e+00  1.2030619861716622e+02 -4.9844477651976987e+01 0.0000000000000000e+00 -4.9844477651976987e+01 -8.7711981471070089e+01 0.0000000000000000e+00 0.0000000000000000e+00 0.0000000000000000e+00 0.0000000000000000e+00  2.3140177666961954e+01 5.3418659903908107e+01 0.0000000000000000e+00 5.3418659903908107e+01 8.3454711013360583e-01 0.0000000000000000e+00 0.0000000000000000e+00 0.0000000000000000e+00 0.0000000000000000e+00  1.0517400743254170e+01 4.2061403473770284e+01 0.0000000000000000e+00 4.2061403473770284e+01 2.2657030033960979e+01 0.0000000000000000e+00 0.0000000000000000e+00 0.0000000000000000e+00 0.0000000000000000e+00  -5.6066911334350301e+01 -6.5787181770174126e+00 0.0000000000000000e+00 -6.5787181770174126e+00 9.1107261028453905e+01 0.0000000000000000e+00 0.0000000000000000e+00 0.0000000000000000e+00 0.0000000000000000e+00  -1.4170596751631831e+02 5.1129956912275745e+01 0.0000000000000000e+00 5.1129956912275745e+01 1.6400540912027475e+02 0.0000000000000000e+00 0.0000000000000000e+00 0.0000000000000000e+00 0.0000000000000000e+00  -3.2974619408241352e+01 3.3857762056177002e+01 0.0000000000000000e+00 3.3857762056177002e+01 6.5137633535833572e+01 0.0000000000000000e+00 0.0000000000000000e+00 0.0000000000000000e+00 0.0000000000000000e+00  9.3492447547308792e+00 -2.3460522470648821e+00 0.0000000000000000e+00 -2.3460522470648821e+00 2.4392368384204104e+01 0.0000000000000000e+00 0.0000000000000000e+00 0.0000000000000000e+00 0.0000000000000000e+00  1.2809925952068236e+01 1.3759881478404126e+00 0.0000000000000000e+00 1.3759881478404126e+00 1.4860073769360481e+01 0.0000000000000000e+00 0.0000000000000000e+00 0.0000000000000000e+00 0.0000000000000000e+00  2.3138520520977440e+01 9.5730396051447819e+00 0.0000000000000000e+00 9.5730396051447819e+00 1.2017471877250157e+00 0.0000000000000000e+00 0.0000000000000000e+00 0.0000000000000000e+00 0.0000000000000000e+00  8.6855918163256817e+01 8.3633124337638627e+00 0.0000000000000000e+00 8.3633124337638627e+00 -5.9683557541259894e+01 0.0000000000000000e+00 0.0000000000000000e+00 0.0000000000000000e+00 0.0000000000000000e+00  1.3779233632525910e+02 -6.7566641132329110e+01 0.0000000000000000e+00 -6.7566641132329110e+01 -1.4001447805644750e+02 0.0000000000000000e+00 0.0000000000000000e+00 0.0000000000000000e+00 0.0000000000000000e+00  5.4872545312620126e+01 -3.9061370143571075e+01 0.0000000000000000e+00 -3.9061370143571075e+01 -4.6342261003098329e+01 0.0000000000000000e+00 0.0000000000000000e+00 0.0000000000000000e+00 0.0000000000000000e+00  2.5475199703051481e+00 -1.9827626360561482e+01 0.0000000000000000e+00 -1.9827626360561482e+01 1.2640666132451903e+01 0.0000000000000000e+00 0.0000000000000000e+00 0.0000000000000000e+00 0.0000000000000000e+00  -7.5170189207394714e+01 -3.9778539776032098e+01 0.0000000000000000e+00 -3.9778539776032098e+01 1.2206548635058193e+02 0.0000000000000000e+00 0.0000000000000000e+00 0.0000000000000000e+00 0.0000000000000000e+00  -2.4422481044764024e+02 6.1078137056565843e+01 0.0000000000000000e+00 6.1078137056565843e+01 2.4595642082918812e+02 0.0000000000000000e+00 0.0000000000000000e+00 0.0000000000000000e+00 0.0000000000000000e+00  -1.4268459246761142e+02 1.7672266596039452e+02 0.0000000000000000e+00 1.7672266596039452e+02 1.5805991125100638e+02 0.0000000000000000e+00 0.0000000000000000e+00 0.0000000000000000e+00 0.0000000000000000e+00  5.4203118425328478e+00 -6.2148456607433769e+00 0.0000000000000000e+00 -6.2148456607433769e+00 2.0826719600147204e+01 0.0000000000000000e+00 0.0000000000000000e+00 0.0000000000000000e+00 0.0000000000000000e+00  -1.5482644289652558e+02 1.0852266573283401e+02 0.0000000000000000e+00 1.0852266573283401e+02 1.6159258958991181e+01 0.0000000000000000e+00 0.0000000000000000e+00 0.0000000000000000e+00 0.0000000000000000e+00  3.8566529384817363e+02 2.3609404395742095e+02 0.0000000000000000e+00 2.3609404395742095e+02 6.5849168296627667e+01 0.0000000000000000e+00 0.0000000000000000e+00 0.0000000000000000e+00 0.0000000000000000e+00  8.7692532425243765e+00 1.2956622675165207e+02 0.0000000000000000e+00 1.2956622675165207e+02 7.3789964447064298e+00 0.0000000000000000e+00 0.0000000000000000e+00 0.0000000000000000e+00 0.0000000000000000e+00  -4.7065537879627257e+00 -2.6936895651084092e+02 0.0000000000000000e+00 -2.6936895651084092e+02 5.0689977019991792e+00 0.0000000000000000e+00 0.0000000000000000e+00 0.0000000000000000e+00 0.0000000000000000e+00  1.3040774432604191e+01 1.6813474259475072e+01 0.0000000000000000e+00 1.6813474259475072e+01 -2.8759872407782083e+01 0.0000000000000000e+00 0.0000000000000000e+00 0.0000000000000000e+00 0.0000000000000000e+00  1.6916342363310058e+01 1.3575184532964980e+02 0.0000000000000000e+00 1.3575184532964980e+02 1.9237889348504382e+01 0.0000000000000000e+00 0.0000000000000000e+00 0.0000000000000000e+00 0.0000000000000000e+00  3.2971848343275305e+01 1.3133591146568818e+02 0.0000000000000000e+00 1.3133591146568818e+02 6.6921142707030361e+00 0.0000000000000000e+00 0.0000000000000000e+00 0.0000000000000000e+00 0.0000000000000000e+00  1.2834405529363634e+01 7.6055389692159352e+01 0.0000000000000000e+00 7.6055389692159352e+01 3.5887050326789051e+01 0.0000000000000000e+00 0.0000000000000000e+00 0.0000000000000000e+00 0.0000000000000000e+00  -2.4649123095515886e+01 1.4736688716677543e+01 0.0000000000000000e+00 1.4736688716677543e+01 1.0765863967648850e+00 0.0000000000000000e+00 0.0000000000000000e+00 0.0000000000000000e+00 0.0000000000000000e+00  -9.1368945481413579e+00 -1.2978757833058735e+01 0.0000000000000000e+00 -1.2978757833058735e+01 -1.7815116037531681e+01 0.0000000000000000e+00 0.0000000000000000e+00 0.0000000000000000e+00 0.0000000000000000e+00  2.0792621306985786e+00 3.6302309806402263e+01 0.0000000000000000e+00 3.6302309806402263e+01 3.0051635238467047e+00 0.0000000000000000e+00 0.0000000000000000e+00 0.0000000000000000e+00 0.0000000000000000e+00  1.5110303437720085e+00 3.1575422627204524e+01 0.0000000000000000e+00 3.1575422627204524e+01 6.1340347236549286e-01 0.0000000000000000e+00 0.0000000000000000e+00 0.0000000000000000e+00 0.0000000000000000e+00  1.8014375660753625e+00 3.0278568523563155e+01 0.0000000000000000e+00 3.0278568523563155e+01 2.8381602652278217e+00 0.0000000000000000e+00 0.0000000000000000e+00 0.0000000000000000e+00 0.0000000000000000e+00  -2.3547454476544001e+00 -6.9529074181353918e+00 0.0000000000000000e+00 -6.9529074181353918e+00 -5.2361488156535980e+00 0.0000000000000000e+00 0.0000000000000000e+00 0.0000000000000000e+00 0.0000000000000000e+00  2.7451440672518490e-01 -3.5297516996556197e+01 0.0000000000000000e+00 -3.5297516996556197e+01 7.2214419404641328e+00 0.0000000000000000e+00 0.0000000000000000e+00 0.0000000000000000e+00 0.0000000000000000e+00  -2.0961659723537767e+00 -2.9417485310305107e+01 0.0000000000000000e+00 -2.9417485310305107e+01 -2.9285151698525733e+00 0.0000000000000000e+00 0.0000000000000000e+00 0.0000000000000000e+00 0.0000000000000000e+00  1.1516384727825690e+01 1.3501946200824653e+01 0.0000000000000000e+00 1.3501946200824653e+01 1.1502037913823431e+01 0.0000000000000000e+00 0.0000000000000000e+00 0.0000000000000000e+00 0.0000000000000000e+00  7.4917005135632584e+00 -1.4242106076646102e+00 0.0000000000000000e+00 -1.4242106076646102e+00 7.9868712472786081e+00 0.0000000000000000e+00 0.0000000000000000e+00 0.0000000000000000e+00 0.0000000000000000e+00  -3.4046524329761368e+01 -1.1987711426049133e+02 0.0000000000000000e+00 -1.1987711426049133e+02 -1.1263760619598925e+01 0.0000000000000000e+00 0.0000000000000000e+00 0.0000000000000000e+00 0.0000000000000000e+00  1.2332100179313546e+01 -3.7597254952540254e+01 0.0000000000000000e+00 -3.7597254952540254e+01 1.1812649093183818e+01 0.0000000000000000e+00 0.0000000000000000e+00 0.00000000000000