<?xml version="1.0"?>
<VTKFile type="UnstructuredGrid"  version="0.1"  >
<UnstructuredGrid>
<Piece  NumberOfPoints="4978" NumberOfCells="9630">
<Points>
<DataArray  type="Float64"  NumberOfComponents="3"  format="ascii">0 1.5 0  0 0 0  0.06190941752361886 0 0  0.06190941752361886 0.02304324263930277 0  0.07687367483109155 0.06663263502519032 0  0.1051805799723963 0.1030013474942385 0  0.1437626405485843 0.128208265731708 0  0.1884388916338735 0.1395218290209338 0  0.2343679681997119 0.1357160372315063 0  0.2765727421371398 0.117203306956754 0  0.3104796713154951 0.0859897797765535 0  0.3324144138380889 0.04545792568865569 0  0.34 0 0  0.4722134970410927 0 0  0.4722134970410927 0.02388743731615415 0  0.4894717723551502 0.0684361811740563 0  0.5216574972706967 0.1037422395464312 0  0.5644238112906292 0.1250373336124665 0  0.6119948867302293 0.1294454429183545 0  0.6579459862509499 0.1163712278761581 0  0.6960711592386857 0.08758043367405244 0  0.7212213898225662 0.04696141660432988 0  0.73 0 0  0.85 0 0  0.857341522555727 0.04635254915624212 0  0.8786474508437579 0.08816778784387098 0  0.9118322121561291 0.1213525491562421 0  0.9536474508437579 0.142658477444273 0  1 0.15 0  1.046352549156242 0.142658477444273 0  1.088167787843871 0.1213525491562421 0  1.121352549156242 0.08816778784387097 0  1.142658477444273 0.04635254915624211 0  1.15 0 0  1.461909417523619 0 0  1.461909417523619 0.02304324263930277 0  1.476873674831092 0.06663263502519032 0  1.505180579972396 0.1030013474942385 0  1.543762640548584 0.128208265731708 0  1.588438891633874 0.1395218290209338 0  1.634367968199712 0.1357160372315063 0  1.67657274213714 0.117203306956754 0  1.710479671315495 0.0859897797765535 0  1.732414413838089 0.04545792568865569 0  1.74 0 0  1.78 0 0  1.789134456098646 0.04592201188381079 0  1.815147186257614 0.08485281374238571 0  1.854077988116189 0.1108655439013544 0  1.9 0.12 0  1.945922011883811 0.1108655439013544 0  1.984852813742386 0.08485281374238569 0  2.010865543901355 0.04592201188381077 0  2.02 0 0  2.161909417523619 0 0  2.161909417523619 0.02304324263930277 0  2.176873674831092 0.06663263502519032 0  2.205180579972396 0.1030013474942385 0  2.243762640548584 0.128208265731708 0  2.288438891633873 0.1395218290209338 0  2.334367968199712 0.1357160372315063 0  2.37657274213714 0.117203306956754 0  2.410479671315495 0.0859897797765535 0  2.432414413838089 0.04545792568865569 0  2.44 0 0  2.472213497041093 0 0  2.472213497041093 0.02388743731615415 0  2.48947177235515 0.0684361811740563 0  2.521657497270697 0.1037422395464312 0  2.564423811290629 0.1250373336124665 0  2.611994886730229 0.1294454429183545 0  2.65794598625095 0.1163712278761581 0  2.696071159238686 0.08758043367405244 0  2.721221389822567 0.04696141660432988 0  2.73 0 0  3 0 0  3 1.5 0  0 0.75 0  3 0.75 0  1.5 1.5 0  0 0.375 0  0 0.1875 0  0 0.09375 0  0.75 1.5 0  2.25 1.5 0  1.137279452465634 0.8667483509386543 0  2.055384907633385 0.8149748422668953 0  0.5545701656450307 0.9454298343549693 0  2.545804583542266 1.045804583542266 0  2.462951104370831 0.5854482317237805 0  1.6063536999151 1.018574336065804 0  0.7683179692414909 0.5511078775270282 0  1.647896012796697 0.5780189144999826 0  1.875 1.5 0  0.3683226130580748 0.5893782185394094 0  0.375 1.5 0  0 1.125 0  3 0.375 0  1.125 1.5 0  3 1.125 0  2.625 1.5 0  1.247216233241016 0.4851891764902285 0  0.8779404074027722 1.143194262378568 0  1.992337703792022 0.4642129848858538 0  2.200035536160075 1.144037289792772 0  1.3125 1.206118267007311 0  1.882280687299076 1.18026905614258 0  0.8375010042452264 0.8437030129736524 0  0.2703628106324028 0.8673582108832857 0  0.336944444033578 1.181320038574892 0  1.424720841531434 0.7792108746582741 0  2.763716218670896 0.5625 0  0.6112325230261646 1.216037756380734 0  2.429292395855053 1.293345775631689 0  2.798691155259055 0.9375 0  2.340750225085827 0.8450755885956063 0  2.74506315455788 1.24506315455788 0  0.4115012634770826 0.3359864655288552 0  1.6875 1.5 0  1.553212834656815 1.259295117559057 0  1.783849920010049 0.8130750647527071 0  2.590242300399914 0.800172794523538 0  2.206538789959823 0.6067588023913982 0  1.022769083327432 0.627137676743421 0  2.0625 1.5 0  2.566013274303806 0.3667751817948443 0  2.317230353528816 0.3853650267397287 0  0.9546600707351991 0.3912757388497677 0  1.76490060939521 0.3540000691256479 0  1.398169292756645 0.3089248951275104 0  0.1875 1.5 0  0.6961815191548208 0.3380429757712475 0  0.6390751493076395 0.7361434669345621 0  1.385952842918209 0.9972233609662619 0  1.082019261833385 1.265823315390121 0  2.784258672215756 0.3048233224522298 0  0 0.5625 0  0.2130557952202133 0.4325455696870932 0  2.110276358430479 0.2903936515686117 0  0 1.3125 0  0.5618175915722093 0.5022778936897083 0  1.438605690073396 0.5702366817214194 0  1.851778102902867 0.6169409446553686 0  0.9375 1.5 0  1.918499765346388 0.9737703250858507 0  1.066617221574711 1.060327143126178 0  0.17830064634795 0.65625 0  1.139464543633635 0.3182162642668528 0  1.214887260891528 0.6824917486258804 0  0.4470960700565646 0.7803305254813445 0  2.056073894593081 1.292965518236122 0  0.7800417460951754 1.309431349558015 0  0.7102942521579887 1.054059105222724 0  2.772203778896419 0.7508393899039921 0  3 0.9375 0  2.4375 1.5 0  0.5625 1.5 0  3 0.5625 0  1.3125 1.5 0  0 0.9375 0  3 1.3125 0  2.8125 1.5 0  3 0.1875 0  1.74009613212014 1.312845810865967 0  0.1858279553328271 1.04932632064409 0  1.582414108002925 0.3243096672004901 0  0.4576542986122824 1.328517530191622 0  1.30595470876181 0 0  0.1616828829631953 1.229471150973137 0  1.600689448835705 0.8342777580615786 0  2.184954406689295 0.9543424310663166 0  2.356848459734244 1.033731425282726 0  2.249618867339344 1.318565528322325 0  2.031012140730151 0.6383085966483963 0  1.264473591492607 0.1926369230867345 0  1.93294708275428 0.2969945700235964 0  1.406271966518558 1.353045118606616 0  0.2855042944080262 1.351202341158466 0  2.163692386827529 0.4469681835123645 0  2.058709899218631 1.05982604745508 0  1.21875 1.361760465218127 0  1.232585115983139 1.060656719142284 0  1.682328919476849 1.161572426192166 0  0.4864612871934715 1.100927295036068 0  2.842393003195402 0.1547034389615206 0  1.901710724058898 1.340659870484523 0  2.578488906869203 1.212378831230944 0  0.346730023619794 1.013455011579226 0  1.758789788261688 0.970834021568154 0  0.9209577900333827 0.984909924281538 0  2.461973640748163 0.2490632223012221 0  2.833434714842781 1.102015011431888 0  1.485476187845101 1.118115752354218 0  0.7869575052851041 0.2127716822913992 0  1.091585464669657 0.4673676525872368 0  0.9308375558444295 1.286291202675726 0  2.609275627299536 0.5207885309723005 0  2.859418780372727 0.4404724026784034 0  0.1368795735450182 0.2913992261536034 0  0.5088670694303536 0.6431238265444117 0  0.9924988599062848 0.7887715626383616 0  0.8674753477047706 0.6821390867986818 0  0.6993572585883594 0.9038049302516018 0  1.53924450853783 0.6818717864694561 0  1.27954362181495 0.818196911265721 0  2.885754890315292 0.65625 0  0.1199579452929171 0.84375 0  0.3101130847613819 0.7251157056441525 0  2.683488575489726 1.10528265125029 0  2.637912450120847 1.350340704724588 0  0.65625 1.387568746661148 0  2.204969505432462 0.7645924845263576 0  2.34230217156612 0.6870332922078795 0  2.458336421316689 0.930056573232228 0  1.547170662421109 0.4687109428674099 0  0.55426355401875 0.2785752421136156 0  1.927690911684502 0.7425770788416013 0  2.650983472818039 0.6639703826486528 0  0.2807744135836687 0.2731407085328489 0  2.697063502273202 0.4130460425434029 0  1.768721210125562 0.4985606178023466 0  1.59375 1.394491048145999 0  1.03125 1.39617417476255 0  2.649124789533757 0.9376608889715211 0  2.899345577629528 0.84375 0  2.448792339301353 1.151333513094988 0  2.455516477512143 0.7671738041202795 0  0.1479512725554237 1.367277900867101 0  1.733007556765436 0.6856365299097277 0  2.865 0 0  0.407900401917371 0.1920322062602331 0  1.482893533441057 0.9020086108979886 0  2.902194538181383 1.21875 0  2.860324471164851 1.360324471164851 0  0.9128790560808855 0.5311054613533476 0  0.7396036279203969 1.183264973390871 0  1.379392725427689 0.4456149894503371 0  0.8305263666170877 0.339868595109382 0  2.352639297837627 1.399880277695907 0  2.15625 1.5 0  2.32277762299786 1.203473773731512 0  1.818471673600783 0.235727380341035 0  1.269129800285538 0.3222823294390822 0  2.329228807632851 0.5297324129610972 0  0.430777275012463 0.469645907614299 0  1.390502090335328 0.1630587681988043 0  1.149408636841162 1.157447166816889 0  1.687853147042319 0.2519031106491252 0  0.3941048876243997 0.8956837842542459 0  1.877835046604575 0.410724628626283 0  1.348230251479045 0.6691802479050837 0  2.336954765206726 0.2613063289913201 0  2.514033953321691 1.393470229958569 0  0 0.46875 0  0.1287800079303892 0.5340043503292357 0  2.441328451749267 0.3721441168812449 0  0.9333932382689634 0.2670516659043625 0  1.13959172768211 0.5827503401695603 0  0.8703665929291606 1.395134656069543 0  1.240468926246127 0.9364063612525604 0  1.433475419570003 1.229904687600933 0  1.020534477629395 0.9101139083191684 0  1.108777781305164 0.7462713331880694 0  0.6468125623079457 0.6038935958199032 0  1.665312060212151 0.428962863572448 0  0.2512528931669099 0.5500044694745148 0  2.66971919386773 0.2450375495263612 0  2.901855502368762 0.2640467328343441 0  2.063534245742155 0.9373123558679215 0  2.031795413587333 0.1972457754676831 0  1.836924180675512 1.065887991891963 0  1.001601941364679 1.16852535211421 0  0.8051266927803291 0.9581030042697194 0  0.7620228346493961 0.7461373576581022 0  3 1.03125 0  2.084817260746984 1.176705869274554 0  2.085981885570153 0.5347538843754811 0  1.496744890324478 0.239335226969819 0  1.894594308711337 0.8570406362709689 0  1.78125 1.5 0  2.109375 1.394928085212741 0  2.71875 1.5 0  0.4943575340553394 1.217544978302146 0  0.5937185858435849 1.055241883498284 0  2.227680725187669 0.3075299344665331 0  0.5158109084499103 0.3891628929402524 0  1.96875 1.5 0  0.6036564600183
[...]
<PointData  Tensors="f_872"> 
<DataArray  type="Float64"  Name="f_872"  NumberOfComponents="9" format="ascii">-6.4471270308424744e+00 -2.8032143513190411e+00 0.0000000000000000e+00 -2.8032143513190411e+00 -1.2273449080401155e+01 0.0000000000000000e+00 0.0000000000000000e+00 0.0000000000000000e+00 0.0000000000000000e+00  3.5796142728118880e+01 2.9012131294141517e+00 0.0000000000000000e+00 2.9012131294141517e+00 2.7451116325451661e+01 0.0000000000000000e+00 0.0000000000000000e+00 0.0000000000000000e+00 0.0000000000000000e+00  2.4169383762429167e+01 3.4166966234328267e+00 0.0000000000000000e+00 3.4166966234328267e+00 3.1441991151109875e+01 0.0000000000000000e+00 0.0000000000000000e+00 0.0000000000000000e+00 0.0000000000000000e+00  5.1124825398182416e+01 1.7462997905161235e+01 0.0000000000000000e+00 1.7462997905161235e+01 1.2866060032554055e+01 0.0000000000000000e+00 0.0000000000000000e+00 0.0000000000000000e+00 0.0000000000000000e+00  7.8975880750140220e+01 1.0502306671571347e+01 0.0000000000000000e+00 1.0502306671571347e+01 -3.3190379962593219e+01 0.0000000000000000e+00 0.0000000000000000e+00 0.0000000000000000e+00 0.0000000000000000e+00  1.0849900600076035e+02 3.7302772893576837e+00 0.0000000000000000e+00 3.7302772893576837e+00 -5.7159494770498952e+01 0.0000000000000000e+00 0.0000000000000000e+00 0.0000000000000000e+00 0.0000000000000000e+00  6.8111473577945290e+01 -1.1719117938848164e+01 0.0000000000000000e+00 -1.1719117938848164e+01 -1.6502835757060986e+01 0.0000000000000000e+00 0.0000000000000000e+00 0.0000000000000000e+00 0.0000000000000000e+00  3.6655543116395940e+01 4.3817180446925406e+01 0.0000000000000000e+00 4.3817180446925406e+01 1.3124086811653831e+01 0.0000000000000000e+00 0.0000000000000000e+00 0.0000000000000000e+00 0.0000000000000000e+00  4.6428688869527249e+01 7.1139547639526768e+01 0.0000000000000000e+00 7.1139547639526768e+01 -4.3159395560409521e+00 0.0000000000000000e+00 0.0000000000000000e+00 0.0000000000000000e+00 0.0000000000000000e+00  8.3449466968907373e+00 1.4021254316488191e+01 0.0000000000000000e+00 1.4021254316488191e+01 6.0581908783848313e+01 0.0000000000000000e+00 0.0000000000000000e+00 0.0000000000000000e+00 0.0000000000000000e+00  -8.0833810388104567e+01 4.6752098283480699e+01 0.0000000000000000e+00 4.6752098283480699e+01 1.1978767508443261e+02 0.0000000000000000e+00 0.0000000000000000e+00 0.0000000000000000e+00 0.0000000000000000e+00  -6.4836817943278191e+01 8.7271933500946716e+01 0.0000000000000000e+00 8.7271933500946716e+01 1.1143115121734752e+02 0.0000000000000000e+00 0.0000000000000000e+00 0.0000000000000000e+00 0.0000000000000000e+00  3.2976030065513640e+01 9.6015935205288248e+00 0.0000000000000000e+00 9.6015935205288248e+00 3.5980669590879771e+01 0.0000000000000000e+00 0.0000000000000000e+00 0.0000000000000000e+00 0.0000000000000000e+00  2.5594240552966674e+01 -4.9530481235215568e-01 0.0000000000000000e+00 -4.9530481235215568e-01 1.9227659152718843e+01 0.0000000000000000e+00 0.0000000000000000e+00 0.0000000000000000e+00 0.0000000000000000e+00  4.6173090478288252e+01 1.6220971142235271e+01 0.0000000000000000e+00 1.6220971142235271e+01 9.8160410452445888e+00 0.0000000000000000e+00 0.0000000000000000e+00 0.0000000000000000e+00 0.0000000000000000e+00  3.0152809097405537e+01 1.9067958368281896e+01 0.0000000000000000e+00 1.9067958368281896e+01 1.8072786347827069e+01 0.0000000000000000e+00 0.0000000000000000e+00 0.0000000000000000e+00 0.0000000000000000e+00  -3.9235840652725457e+01 2.5236721676745425e+01 0.0000000000000000e+00 2.5236721676745425e+01 9.7416469338757366e+01 0.0000000000000000e+00 0.0000000000000000e+00 0.0000000000000000e+00 0.0000000000000000e+00  -2.8982530694971565e+01 6.1581540666640194e+01 0.0000000000000000e+00 6.1581540666640194e+01 8.1552027611779991e+01 0.0000000000000000e+00 0.0000000000000000e+00 0.0000000000000000e+00 0.0000000000000000e+00  7.7791447385590606e-01 -6.9303895500978152e+00 0.0000000000000000e+00 -6.9303895500978152e+00 6.2356334495051392e+01 0.0000000000000000e+00 0.0000000000000000e+00 0.0000000000000000e+00 0.0000000000000000e+00  -5.0194436825792948e+01 -5.4755071166122541e+01 0.0000000000000000e+00 -5.4755071166122541e+01 1.0518904294553003e+02 0.0000000000000000e+00 0.0000000000000000e+00 0.0000000000000000e+00 0.0000000000000000e+00  5.0659370038277345e+00 -1.8756993826424047e+01 0.0000000000000000e+00 -1.8756993826424047e+01 3.8799047085904220e+01 0.0000000000000000e+00 0.0000000000000000e+00 0.0000000000000000e+00 0.0000000000000000e+00  4.2987345179796243e+01 -2.2606468507380438e+01 0.0000000000000000e+00 -2.2606468507380438e+01 3.2718463307080650e+00 0.0000000000000000e+00 0.0000000000000000e+00 0.0000000000000000e+00 0.0000000000000000e+00  2.8150272616770327e+01 3.4467176491245697e+00 0.0000000000000000e+00 3.4467176491245697e+00 2.0728044625723108e+01 0.0000000000000000e+00 0.0000000000000000e+00 0.0000000000000000e+00 0.0000000000000000e+00  -4.2084583720311004e+00 -1.5219318795921831e+01 0.0000000000000000e+00 -1.5219318795921831e+01 6.6545933127287924e+01 0.0000000000000000e+00 0.0000000000000000e+00 0.0000000000000000e+00 0.0000000000000000e+00  -3.5000638601189507e+01 -7.5892523031238653e+01 0.0000000000000000e+00 -7.5892523031238653e+01 8.5207315787047364e+01 0.0000000000000000e+00 0.0000000000000000e+00 0.0000000000000000e+00 0.0000000000000000e+00  -9.3249541194211005e+01 -4.0112247379074795e+01 0.0000000000000000e+00 -4.0112247379074795e+01 1.2531367116921066e+02 0.0000000000000000e+00 0.0000000000000000e+00 0.0000000000000000e+00 0.0000000000000000e+00  -4.1906652717477435e+01 -2.3329413772097809e+01 0.0000000000000000e+00 -2.3329413772097809e+01 8.8754700941555825e+01 0.0000000000000000e+00 0.0000000000000000e+00 0.0000000000000000e+00 0.0000000000000000e+00  3.0285338161902988e+01 -4.7987913508069234e+01 0.0000000000000000e+00 -4.7987913508069234e+01 1.6129962147990724e+01 0.0000000000000000e+00 0.0000000000000000e+00 0.0000000000000000e+00 0.0000000000000000e+00  2.8594043245959636e+01 -5.1515402092690543e+01 0.0000000000000000e+00 -5.1515402092690543e+01 7.6062856653904287e+00 0.0000000000000000e+00 0.0000000000000000e+00 0.0000000000000000e+00 0.0000000000000000e+00  5.2160442931113565e+01 1.0468481801785614e+01 0.0000000000000000e+00 1.0468481801785614e+01 -8.3030204949317064e+00 0.0000000000000000e+00 0.0000000000000000e+00 0.0000000000000000e+00 0.0000000000000000e+00  9.7092180737349850e+01 2.5862970726837197e+01 0.0000000000000000e+00 2.5862970726837197e+01 -5.9881468782750616e+01 0.0000000000000000e+00 0.0000000000000000e+00 0.0000000000000000e+00 0.0000000000000000e+00  8.1283408905215040e+01 -2.2794722799651863e+00 0.0000000000000000e+00 -2.2794722799651863e+00 -3.1144619967013792e+01 0.0000000000000000e+00 0.0000000000000000e+00 0.0000000000000000e+00 0.0000000000000000e+00  3.5805727242919914e+01 -1.2035192557279721e+01 0.0000000000000000e+00 -1.2035192557279721e+01 1.3794636107193682e+01 0.0000000000000000e+00 0.0000000000000000e+00 0.0000000000000000e+00 0.0000000000000000e+00  2.4078376626433297e+01 -5.3668158882812023e-01 0.0000000000000000e+00 -5.3668158882812023e-01 1.8187009946772996e+01 0.0000000000000000e+00 0.0000000000000000e+00 0.0000000000000000e+00 0.0000000000000000e+00  2.6425863497608429e+01 -2.7557784765699380e+00 0.0000000000000000e+00 -2.7557784765699380e+00 2.2119617254988771e+01 0.0000000000000000e+00 0.0000000000000000e+00 0.0000000000000000e+00 0.0000000000000000e+00  -4.0240334648083191e+01 -3.4710198126568542e+01 0.0000000000000000e+00 -3.4710198126568542e+01 7.4109000331311492e+01 0.0000000000000000e+00 0.0000000000000000e+00 0.0000000000000000e+00 0.0000000000000000e+00  -5.2902059914070499e+01 -5.6977833252370246e+01 0.0000000000000000e+00 -5.6977833252370246e+01 8.7945067005715188e+01 0.0000000000000000e+00 0.0000000000000000e+00 0.0000000000000000e+00 0.0000000000000000e+00  -5.1590164065567080e+01 -2.7760212593517362e+01 0.0000000000000000e+00 -2.7760212593517362e+01 8.9800106191544273e+01 0.0000000000000000e+00 0.0000000000000000e+00 0.0000000000000000e+00 0.0000000000000000e+00  1.8433718875598771e+01 -3.4324420498263869e+01 0.0000000000000000e+00 -3.4324420498263869e+01 2.2847907853629085e+01 0.0000000000000000e+00 0.0000000000000000e+00 0.0000000000000000e+00 0.0000000000000000e+00  2.6819914138592843e+01 -6.7577412852376895e+01 0.0000000000000000e+00 -6.7577412852376895e+01 -8.5775445209914700e+00 0.0000000000000000e+00 0.0000000000000000e+00 0.0000000000000000e+00 0.0000000000000000e+00  5.5192644023210093e+01 -4.0667288188713846e-01 0.0000000000000000e+00 -4.0667288188713846e-01 -1.6865298215979681e+01 0.0000000000000000e+00 0.0000000000000000e+00 0.0000000000000000e+00 0.0000000000000000e+00  1.1209064610432011e+02 3.9979755843468261e+01 0.0000000000000000e+00 3.9979755843468261e+01 -6.6418014276131004e+01 0.0000000000000000e+00 0.0000000000000000e+00 0.0000000000000000e+00 0.0000000000000000e+00  1.0757162482511592e+02 -9.5941213777257381e+00 0.0000000000000000e+00 -9.5941213777257381e+00 -6.0985211831261189e+01 0.0000000000000000e+00 0.0000000000000000e+00 0.0000000000000000e+00 0.0000000000000000e+00  4.2694552761064443e+01 -2.7002529678290539e+01 0.0000000000000000e+00 -2.7002529678290539e+01 -2.8464047350559123e+00 0.0000000000000000e+00 0.0000000000000000e+00 0.0000000000000000e+00 0.0000000000000000e+00  2.9228944884798565e+01 -4.5811282151689090e+00 0.0000000000000000e+00 -4.5811282151689099e+00 6.8817529550650862e+00 0.0000000000000000e+00 0.0000000000000000e+00 0.0000000000000000e+00 0.0000000000000000e+00  1.5962821012279530e+01 -3.5062875655262964e+00 0.0000000000000000e+00 -3.5062875655262955e+00 4.1606057579788597e+01 0.0000000000000000e+00 0.0000000000000000e+00 0.0000000000000000e+00 0.0000000000000000e+00  -5.1138608838337785e+00 -1.4142099419562291e+01 0.0000000000000000e+00 -1.4142099419562285e+01 4.6094837112991932e+01 0.0000000000000000e+00 0.0000000000000000e+00 0.0000000000000000e+00 0.0000000000000000e+00  -1.1959286094234985e+01 -1.7002134834355189e+01 0.0000000000000000e+00 -1.7002134834355189e+01 5.3343581610591308e+01 0.0000000000000000e+00 0.0000000000000000e+00 0.0000000000000000e+00 0.0000000000000000e+00  3.5672822102667254e+01 -6.0245878554602534e+01 0.0000000000000000e+00 -6.0245878554602534e+01 9.0957772082964059e+00 0.0000000000000000e+00 0.0000000000000000e+00 0.0000000000000000e+00 0.0000000000000000e+00  1.9661338896170463e+01 -8.0398839440473978e+01 0.0000000000000000e+00 -8.0398839440473978e+01 -3.6257905408103599e+00 0.0000000000000000e+00 0.0000000000000000e+00 0.0000000000000000e+00 0.0000000000000000e+00  7.1871844358780606e+01 5.7404883260620228e+00 0.0000000000000000e+00 5.7404883260620228e+00 -3.5570106316445020e+01 0.0000000000000000e+00 0.0000000000000000e+00 0.0000000000000000e+00 0.0000000000000000e+00  1.1251793947707306e+02 1.2549486153300970e+01 0.0000000000000000e+00 1.2549486153300970e+01 -7.6379077213147184e+01 0.0000000000000000e+00 0.0000000000000000e+00 0.0000000000000000e+00 0.0000000000000000e+00  7.9810043289637349e+01 -4.3567426639726513e+01 0.0000000000000000e+00 -4.3567426639726513e+01 -4.2398285529437189e+01 0.0000000000000000e+00 0.0000000000000000e+00 0.0000000000000000e+00 0.0000000000000000e+00  1.0295333997109399e+01 -9.9748058834753177e+00 0.0000000000000000e+00 -9.9748058834753177e+00 1.9734798203164885e+01 0.0000000000000000e+00 0.0000000000000000e+00 0.0000000000000000e+00 0.0000000000000000e+00  2.7457216098428677e+01 -4.9662798563542800e+00 0.0000000000000000e+00 -4.9662798563542800e+00 8.6326358449487852e+00 0.0000000000000000e+00 0.0000000000000000e+00 0.0000000000000000e+00 0.0000000000000000e+00  3.7950845898198004e+01 2.2719575735902218e+01 0.0000000000000000e+00 2.2719575735902218e+01 -2.4077305117901555e+00 0.0000000000000000e+00 0.0000000000000000e+00 0.0000000000000000e+00 0.0000000000000000e+00  6.7801462848576548e+01 2.0800520535946550e+01 0.0000000000000000e+00 2.0800520535946550e+01 -3.7606575456989461e+01 0.0000000000000000e+00 0.0000000000000000e+00 0.0000000000000000e+00 0.0000000000000000e+00  1.0210479507439638e+02 -1.7123467799888427e+01 0.0000000000000000e+00 -1.7123467799888427e+01 -7.9975279156480127e+01 0.0000000000000000e+00 0.0000000000000000e+00 0.0000000000000000e+00 0.0000000000000000e+00  9.7119096064169341e+01 -3.4862146189096364e+01 0.0000000000000000e+00 -3.4862146189096364e+01 -6.0197063688356835e+01 0.0000000000000000e+00 0.0000000000000000e+00 0.0000000000000000e+00 0.0000000000000000e+00  2.5741170212898844e+01 3.3438592037789952e+01 0.0000000000000000e+00 3.3438592037789952e+01 1.2351485795176900e+00 0.0000000000000000e+00 0.0000000000000000e+00 0.0000000000000000e+00 0.0000000000000000e+00  1.5323593286503314e+01 3.4888603898871679e+01 0.0000000000000000e+00 3.4888603898871679e+01 1.4906474632257810e+01 0.0000000000000000e+00 0.0000000000000000e+00 0.0000000000000000e+00 0.0000000000000000e+00  -3.1182942187048901e+01 -1.1049995186950599e+00 0.0000000000000000e+00 -1.1049995186950599e+00 6.2576570009564620e+01 0.0000000000000000e+00 0.0000000000000000e+00 0.0000000000000000e+00 0.0000000000000000e+00  -8.3427392734183528e+01 3.1167474068953503e+01 0.0000000000000000e+00 3.1167474068953503e+01 1.0612581086044651e+02 0.0000000000000000e+00 0.0000000000000000e+00 0.0000000000000000e+00 0.0000000000000000e+00  -2.5821249209858077e+01 2.4673548009056443e+01 0.0000000000000000e+00 2.4673548009056443e+01 5.1775655559422844e+01 0.0000000000000000e+00 0.0000000000000000e+00 0.0000000000000000e+00 0.0000000000000000e+00  1.1668458376704240e+01 -1.5977152301724082e+00 0.0000000000000000e+00 -1.5977152301724082e+00 2.6703476183727517e+01 0.0000000000000000e+00 0.0000000000000000e+00 0.0000000000000000e+00 0.0000000000000000e+00  1.6278129850835647e+01 4.7970873219626503e-01 0.0000000000000000e+00 4.7970873219626503e-01 1.6821298399548617e+01 0.0000000000000000e+00 0.0000000000000000e+00 0.0000000000000000e+00 0.0000000000000000e+00  2.5652397822277109e+01 9.8667683298452662e+00 0.0000000000000000e+00 9.8667683298452662e+00 5.2900520505718085e-01 0.0000000000000000e+00 0.0000000000000000e+00 0.0000000000000000e+00 0.0000000000000000e+00  8.7431243431985934e+01 8.2473623973321875e+00 0.0000000000000000e+00 8.2473623973321875e+00 -5.6251630832628464e+01 0.0000000000000000e+00 0.0000000000000000e+00 0.0000000000000000e+00 0.0000000000000000e+00  1.1129277060449853e+02 -5.0246068122152408e+01 0.0000000000000000e+00 -5.0246068122152408e+01 -1.0808647741250844e+02 0.0000000000000000e+00 0.0000000000000000e+00 0.0000000000000000e+00 0.0000000000000000e+00  4.9558070449362404e+01 -4.0892195356204212e+01 0.0000000000000000e+00 -4.0892195356204212e+01 -3.9368401983831184e+01 0.0000000000000000e+00 0.0000000000000000e+00 0.0000000000000000e+00 0.0000000000000000e+00  4.5036055711541376e+00 -1.3776415042898345e+01 0.0000000000000000e+00 -1.3776415042898345e+01 1.2700263401688996e+01 0.0000000000000000e+00 0.0000000000000000e+00 0.0000000000000000e+00 0.0000000000000000e+00  -5.5119887950615016e+01 -3.2239132933085529e+01 0.0000000000000000e+00 -3.2239132933085529e+01 9.6147232079552154e+01 0.0000000000000000e+00 0.0000000000000000e+00 0.0000000000000000e+00 0.0000000000000000e+00  -1.4269399308541597e+02 2.8943614809586453e+01 0.0000000000000000e+00 2.8943614809586453e+01 1.6287760809238176e+02 0.0000000000000000e+00 0.0000000000000000e+00 0.0000000000000000e+00 0.0000000000000000e+00  -8.9455162007776138e+01 1.2716511523811089e+02 0.0000000000000000e+00 1.2716511523811089e+02 1.0894433313314299e+02 0.0000000000000000e+00 0.0000000000000000e+00 0.0000000000000000e+00 0.0000000000000000e+00  -6.8343422540794441e+00 -1.3234214263689495e+01 0.0000000000000000e+00 -1.3234214263689495e+01 2.8041146245634682e+01 0.0000000000000000e+00 0.0000000000000000e+00 0.0000000000000000e+00 0.0000000000000000e+00  -1.2601093218334564e+02 1.0092314038197941e+02 0.0000000000000000e+00 1.0092314038197941e+02 -3.1293721496115154e+01 0.0000000000000000e+00 0.0000000000000000e+00 0.0000000000000000e+00 0.0000000000000000e+00  3.1796552128328602e+02 1.9370587557461303e+02 0.0000000000000000e+00 1.9370587557461303e+02 6.2858103667300355e+01 0.0000000000000000e+00 0.0000000000000000e+00 0.0000000000000000e+00 0.0000000000000000e+00  1.0422122433071889e+01 9.2596915682397196e+01 0.0000000000000000e+00 9.2596915682397196e+01 7.7198809366851080e+00 0.0000000000000000e+00 0.0000000000000000e+00 0.0000000000000000e+00 0.0000000000000000e+00  -2.7955444154815732e+00 -2.0156989763305026e+02 0.0000000000000000e+00 -2.0156989763305026e+02 -6.3244750235896430e-02 0.0000000000000000e+00 0.0000000000000000e+00 0.0000000000000000e+00 0.0000000000000000e+00  5.8421865638246189e+00 1.3111211209523479e+01 0.0000000000000000e+00 1.3111211209523479e+01 -3.0613512530220806e+01 0.0000000000000000e+00 0.0000000000000000e+00 0.0000000000000000e+00 0.0000000000000000e+00  1.6719037677975546e+01 9.4867622111751047e+01 0.0000000000000000e+00 9.4867622111751047e+01 2.1443919879681843e+01 0.0000000000000000e+00 0.0000000000000000e+00 0.0000000000000000e+00 0.0000000000000000e+00  3.0294944915924610e+01 8.2964928054916768e+01 0.0000000000000000e+00 8.2964928054916768e+01 1.3397311166719200e+01 0.0000000000000000e+00 0.0000000000000000e+00 0.0000000000000000e+00 0.0000000000000000e+00  1.8228578627667584e+01 4.8103178151547745e+01 0.0000000000000000e+00 4.8103178151547745e+01 3.4293213886105370e+01 0.0000000000000000e+00 0.0000000000000000e+00 0.0000000000000000e+00 0.0000000000000000e+00  -2.5304314793148730e+01 3.7888350691909474e+00 0.0000000000000000e+00 3.7888350691909474e+00 1.8610162418758466e-01 0.0000000000000000e+00 0.0000000000000000e+00 0.0000000000000000e+00 0.0000000000000000e+00  -6.7897385421727803e+00 -7.9356591348788843e+00 0.0000000000000000e+00 -7.9356591348788843e+00 -9.9404465854523991e+00 0.0000000000000000e+00 0.0000000000000000e+00 0.0000000000000000e+00 0.0000000000000000e+00  3.0466785148458881e+00 2.1511608747820183e+01 0.0000000000000000e+00 2.1511608747820183e+01 3.2525870219649029e+00 0.0000000000000000e+00 0.0000000000000000e+00 0.0000000000000000e+00 0.0000000000000000e+00  1.7469095440032290e+00 1.8596246287139671e+01 0.0000000000000000e+00 1.8596246287139671e+01 1.6292600914888591e+00 0.0000000000000000e+00 0.0000000000000000e+00 0.0000000000000000e+00 0.0000000000000000e+00  2.7726843900491547e+00 1.8009038861364086e+01 0.0000000000000000e+00 1.8009038861364086e+01 3.1069938248250288e+00 0.0000000000000000e+00 0.0000000000000000e+00 0.0000000000000000e+00 0.0000000000000000e+00  -2.0661669022403073e+00 -1.6608609859567882e+00 0.0000000000000000e+00 -1.6608609859567882e+00 -4.3093999945863857e+00 0.0000000000000000e+00 0.0000000000000000e+00 0.0000000000000000e+00 0.0000000000000000e+00  2.9811024952390008e+00 -2.0689678401392836e+01 0.0000000000000000e+00 -2.0689678401392836e+01 5.4817554839680334e+00 0.0000000000000000e+00 0.0000000000000000e+00 0.0000000000000000e+00 0.0000000000000000e+00  -1.7044505372173708e+00 -1.7457886573114902e+01 0.0000000000000000e+00 -1.7457886573114902e+01 -2.0220919124165291e+00 0.0000000000000000e+00 0.0000000000000000e+00 0.0000000000000000e+00 0.0000000000000000e+00  1.2167950121453270e+01 8.2949393742933921e+00 0.0000000000000000e+00 8.2949393742933921e+00 1.2196820945579613e+01 0.0000000000000000e+00 0.0000000000000000e+00 0.0000000000000000e+00 0.0000000000000000e+00  8.2297198012265369e+00 -7.6735389305857427e-01 0.0000000000000000e+00 -7.6735389305857427e-01 8.5346180533635359e+00 0.0000000000000000e+00 0.0000000000000000e+00 0.0000000000000000e+00 0.0000000000000000e+00  -2.5540554758799097e+01 -8.0243197873503078e+01 0.0000000000000000e+00 -8.0243197873503078e+01 -1.5345575454313515e+01 0.0000000000000000e+00 0.0000000000000000e+00 0.0000000000000000e+00 0.0000000000000000e+00  1.2654524290913155e+01 -2.2281648201429821e+01 0.0000000000000000e+00 -2.2281648201429821e+01 1.2539064085507826e+01 0.0000000000000000e+00 0.0000000000000000e+00 0.0000000000000