<?xml version="1.0"?>
<VTKFile type="UnstructuredGrid"  version="0.1"  >
<UnstructuredGrid>
<Piece  NumberOfPoints="4978" NumberOfCells="9630">
<Points>
<DataArray  type="Float64"  NumberOfComponents="3"  format="ascii">0 1.5 0  0 0 0  0.06190941752361886 0 0  0.06190941752361886 0.02304324263930277 0  0.07687367483109155 0.06663263502519032 0  0.1051805799723963 0.1030013474942385 0  0.1437626405485843 0.128208265731708 0  0.1884388916338735 0.1395218290209338 0  0.2343679681997119 0.1357160372315063 0  0.2765727421371398 0.117203306956754 0  0.3104796713154951 0.0859897797765535 0  0.3324144138380889 0.04545792568865569 0  0.34 0 0  0.4722134970410927 0 0  0.4722134970410927 0.02388743731615415 0  0.4894717723551502 0.0684361811740563 0  0.5216574972706967 0.1037422395464312 0  0.5644238112906292 0.1250373336124665 0  0.6119948867302293 0.1294454429183545 0  0.6579459862509499 0.1163712278761581 0  0.6960711592386857 0.08758043367405244 0  0.7212213898225662 0.04696141660432988 0  0.73 0 0  0.85 0 0  0.857341522555727 0.04635254915624212 0  0.8786474508437579 0.08816778784387098 0  0.9118322121561291 0.1213525491562421 0  0.9536474508437579 0.142658477444273 0  1 0.15 0  1.046352549156242 0.142658477444273 0  1.088167787843871 0.1213525491562421 0  1.121352549156242 0.08816778784387097 0  1.142658477444273 0.04635254915624211 0  1.15 0 0  1.461909417523619 0 0  1.461909417523619 0.02304324263930277 0  1.476873674831092 0.06663263502519032 0  1.505180579972396 0.1030013474942385 0  1.543762640548584 0.128208265731708 0  1.588438891633874 0.1395218290209338 0  1.634367968199712 0.1357160372315063 0  1.67657274213714 0.117203306956754 0  1.710479671315495 0.0859897797765535 0  1.732414413838089 0.04545792568865569 0  1.74 0 0  1.78 0 0  1.789134456098646 0.04592201188381079 0  1.815147186257614 0.08485281374238571 0  1.854077988116189 0.1108655439013544 0  1.9 0.12 0  1.945922011883811 0.1108655439013544 0  1.984852813742386 0.08485281374238569 0  2.010865543901355 0.04592201188381077 0  2.02 0 0  2.161909417523619 0 0  2.161909417523619 0.02304324263930277 0  2.176873674831092 0.06663263502519032 0  2.205180579972396 0.1030013474942385 0  2.243762640548584 0.128208265731708 0  2.288438891633873 0.1395218290209338 0  2.334367968199712 0.1357160372315063 0  2.37657274213714 0.117203306956754 0  2.410479671315495 0.0859897797765535 0  2.432414413838089 0.04545792568865569 0  2.44 0 0  2.472213497041093 0 0  2.472213497041093 0.02388743731615415 0  2.48947177235515 0.0684361811740563 0  2.521657497270697 0.1037422395464312 0  2.564423811290629 0.1250373336124665 0  2.611994886730229 0.1294454429183545 0  2.65794598625095 0.1163712278761581 0  2.696071159238686 0.08758043367405244 0  2.721221389822567 0.04696141660432988 0  2.73 0 0  3 0 0  3 1.5 0  0 0.75 0  3 0.75 0  1.5 1.5 0  0 0.375 0  0 0.1875 0  0 0.09375 0  0.75 1.5 0  2.25 1.5 0  1.137279452465634 0.8667483509386543 0  2.055384907633385 0.8149748422668953 0  0.5545701656450307 0.9454298343549693 0  2.545804583542266 1.045804583542266 0  2.462951104370831 0.5854482317237805 0  1.6063536999151 1.018574336065804 0  0.7683179692414909 0.5511078775270282 0  1.647896012796697 0.5780189144999826 0  1.875 1.5 0  0.3683226130580748 0.5893782185394094 0  0.375 1.5 0  0 1.125 0  3 0.375 0  1.125 1.5 0  3 1.125 0  2.625 1.5 0  1.247216233241016 0.4851891764902285 0  0.8779404074027722 1.143194262378568 0  1.992337703792022 0.4642129848858538 0  2.200035536160075 1.144037289792772 0  1.3125 1.206118267007311 0  1.882280687299076 1.18026905614258 0  0.8375010042452264 0.8437030129736524 0  0.2703628106324028 0.8673582108832857 0  0.336944444033578 1.181320038574892 0  1.424720841531434 0.7792108746582741 0  2.763716218670896 0.5625 0  0.6112325230261646 1.216037756380734 0  2.429292395855053 1.293345775631689 0  2.798691155259055 0.9375 0  2.340750225085827 0.8450755885956063 0  2.74506315455788 1.24506315455788 0  0.4115012634770826 0.3359864655288552 0  1.6875 1.5 0  1.553212834656815 1.259295117559057 0  1.783849920010049 0.8130750647527071 0  2.590242300399914 0.800172794523538 0  2.206538789959823 0.6067588023913982 0  1.022769083327432 0.627137676743421 0  2.0625 1.5 0  2.566013274303806 0.3667751817948443 0  2.317230353528816 0.3853650267397287 0  0.9546600707351991 0.3912757388497677 0  1.76490060939521 0.3540000691256479 0  1.398169292756645 0.3089248951275104 0  0.1875 1.5 0  0.6961815191548208 0.3380429757712475 0  0.6390751493076395 0.7361434669345621 0  1.385952842918209 0.9972233609662619 0  1.082019261833385 1.265823315390121 0  2.784258672215756 0.3048233224522298 0  0 0.5625 0  0.2130557952202133 0.4325455696870932 0  2.110276358430479 0.2903936515686117 0  0 1.3125 0  0.5618175915722093 0.5022778936897083 0  1.438605690073396 0.5702366817214194 0  1.851778102902867 0.6169409446553686 0  0.9375 1.5 0  1.918499765346388 0.9737703250858507 0  1.066617221574711 1.060327143126178 0  0.17830064634795 0.65625 0  1.139464543633635 0.3182162642668528 0  1.214887260891528 0.6824917486258804 0  0.4470960700565646 0.7803305254813445 0  2.056073894593081 1.292965518236122 0  0.7800417460951754 1.309431349558015 0  0.7102942521579887 1.054059105222724 0  2.772203778896419 0.7508393899039921 0  3 0.9375 0  2.4375 1.5 0  0.5625 1.5 0  3 0.5625 0  1.3125 1.5 0  0 0.9375 0  3 1.3125 0  2.8125 1.5 0  3 0.1875 0  1.74009613212014 1.312845810865967 0  0.1858279553328271 1.04932632064409 0  1.582414108002925 0.3243096672004901 0  0.4576542986122824 1.328517530191622 0  1.30595470876181 0 0  0.1616828829631953 1.229471150973137 0  1.600689448835705 0.8342777580615786 0  2.184954406689295 0.9543424310663166 0  2.356848459734244 1.033731425282726 0  2.249618867339344 1.318565528322325 0  2.031012140730151 0.6383085966483963 0  1.264473591492607 0.1926369230867345 0  1.93294708275428 0.2969945700235964 0  1.406271966518558 1.353045118606616 0  0.2855042944080262 1.351202341158466 0  2.163692386827529 0.4469681835123645 0  2.058709899218631 1.05982604745508 0  1.21875 1.361760465218127 0  1.232585115983139 1.060656719142284 0  1.682328919476849 1.161572426192166 0  0.4864612871934715 1.100927295036068 0  2.842393003195402 0.1547034389615206 0  1.901710724058898 1.340659870484523 0  2.578488906869203 1.212378831230944 0  0.346730023619794 1.013455011579226 0  1.758789788261688 0.970834021568154 0  0.9209577900333827 0.984909924281538 0  2.461973640748163 0.2490632223012221 0  2.833434714842781 1.102015011431888 0  1.485476187845101 1.118115752354218 0  0.7869575052851041 0.2127716822913992 0  1.091585464669657 0.4673676525872368 0  0.9308375558444295 1.286291202675726 0  2.609275627299536 0.5207885309723005 0  2.859418780372727 0.4404724026784034 0  0.1368795735450182 0.2913992261536034 0  0.5088670694303536 0.6431238265444117 0  0.9924988599062848 0.7887715626383616 0  0.8674753477047706 0.6821390867986818 0  0.6993572585883594 0.9038049302516018 0  1.53924450853783 0.6818717864694561 0  1.27954362181495 0.818196911265721 0  2.885754890315292 0.65625 0  0.1199579452929171 0.84375 0  0.3101130847613819 0.7251157056441525 0  2.683488575489726 1.10528265125029 0  2.637912450120847 1.350340704724588 0  0.65625 1.387568746661148 0  2.204969505432462 0.7645924845263576 0  2.34230217156612 0.6870332922078795 0  2.458336421316689 0.930056573232228 0  1.547170662421109 0.4687109428674099 0  0.55426355401875 0.2785752421136156 0  1.927690911684502 0.7425770788416013 0  2.650983472818039 0.6639703826486528 0  0.2807744135836687 0.2731407085328489 0  2.697063502273202 0.4130460425434029 0  1.768721210125562 0.4985606178023466 0  1.59375 1.394491048145999 0  1.03125 1.39617417476255 0  2.649124789533757 0.9376608889715211 0  2.899345577629528 0.84375 0  2.448792339301353 1.151333513094988 0  2.455516477512143 0.7671738041202795 0  0.1479512725554237 1.367277900867101 0  1.733007556765436 0.6856365299097277 0  2.865 0 0  0.407900401917371 0.1920322062602331 0  1.482893533441057 0.9020086108979886 0  2.902194538181383 1.21875 0  2.860324471164851 1.360324471164851 0  0.9128790560808855 0.5311054613533476 0  0.7396036279203969 1.183264973390871 0  1.379392725427689 0.4456149894503371 0  0.8305263666170877 0.339868595109382 0  2.352639297837627 1.399880277695907 0  2.15625 1.5 0  2.32277762299786 1.203473773731512 0  1.818471673600783 0.235727380341035 0  1.269129800285538 0.3222823294390822 0  2.329228807632851 0.5297324129610972 0  0.430777275012463 0.469645907614299 0  1.390502090335328 0.1630587681988043 0  1.149408636841162 1.157447166816889 0  1.687853147042319 0.2519031106491252 0  0.3941048876243997 0.8956837842542459 0  1.877835046604575 0.410724628626283 0  1.348230251479045 0.6691802479050837 0  2.336954765206726 0.2613063289913201 0  2.514033953321691 1.393470229958569 0  0 0.46875 0  0.1287800079303892 0.5340043503292357 0  2.441328451749267 0.3721441168812449 0  0.9333932382689634 0.2670516659043625 0  1.13959172768211 0.5827503401695603 0  0.8703665929291606 1.395134656069543 0  1.240468926246127 0.9364063612525604 0  1.433475419570003 1.229904687600933 0  1.020534477629395 0.9101139083191684 0  1.108777781305164 0.7462713331880694 0  0.6468125623079457 0.6038935958199032 0  1.665312060212151 0.428962863572448 0  0.2512528931669099 0.5500044694745148 0  2.66971919386773 0.2450375495263612 0  2.901855502368762 0.2640467328343441 0  2.063534245742155 0.9373123558679215 0  2.031795413587333 0.1972457754676831 0  1.836924180675512 1.065887991891963 0  1.001601941364679 1.16852535211421 0  0.8051266927803291 0.9581030042697194 0  0.7620228346493961 0.7461373576581022 0  3 1.03125 0  2.084817260746984 1.176705869274554 0  2.085981885570153 0.5347538843754811 0  1.496744890324478 0.239335226969819 0  1.894594308711337 0.8570406362709689 0  1.78125 1.5 0  2.109375 1.394928085212741 0  2.71875 1.5 0  0.4943575340553394 1.217544978302146 0  0.5937185858435849 1.055241883498284 0  2.227680725187669 0.3075299344665331 0  0.5158109084499103 0.3891628929402524 0  1.96875 1.5 0  0.6036564600183
[...]
<PointData  Tensors="f_682"> 
<DataArray  type="Float64"  Name="f_682"  NumberOfComponents="9" format="ascii">-7.3793156087344993e+00 -2.0686882681287746e+00 0.0000000000000000e+00 -2.0686882681287746e+00 -1.1897115886679348e+01 0.0000000000000000e+00 0.0000000000000000e+00 0.0000000000000000e+00 0.0000000000000000e+00  3.6007453080798321e+01 2.6641210732041780e+00 0.0000000000000000e+00 2.6641210732041780e+00 2.7837317104382073e+01 0.0000000000000000e+00 0.0000000000000000e+00 0.0000000000000000e+00 0.0000000000000000e+00  2.4745405263866800e+01 3.2495329070606647e+00 0.0000000000000000e+00 3.2495329070606647e+00 3.2235050381351343e+01 0.0000000000000000e+00 0.0000000000000000e+00 0.0000000000000000e+00 0.0000000000000000e+00  4.9406558529695189e+01 1.5965313243153757e+01 0.0000000000000000e+00 1.5965313243153757e+01 1.5345797985982090e+01 0.0000000000000000e+00 0.0000000000000000e+00 0.0000000000000000e+00 0.0000000000000000e+00  7.2141495108983179e+01 7.7624644244553078e+00 0.0000000000000000e+00 7.7624644244553078e+00 -2.4643750202315299e+01 0.0000000000000000e+00 0.0000000000000000e+00 0.0000000000000000e+00 0.0000000000000000e+00  9.6772513855309654e+01 7.1410091876041006e+00 0.0000000000000000e+00 7.1410091876041006e+00 -4.4244292927503864e+01 0.0000000000000000e+00 0.0000000000000000e+00 0.0000000000000000e+00 0.0000000000000000e+00  6.1028228395145149e+01 -8.5244970045838286e+00 0.0000000000000000e+00 -8.5244970045838286e+00 -1.0490120949732718e+01 0.0000000000000000e+00 0.0000000000000000e+00 0.0000000000000000e+00 0.0000000000000000e+00  3.4977309480413680e+01 3.5138083025405258e+01 0.0000000000000000e+00 3.5138083025405258e+01 1.3293048585845455e+01 0.0000000000000000e+00 0.0000000000000000e+00 0.0000000000000000e+00 0.0000000000000000e+00  4.3369940922394235e+01 6.0614247897481185e+01 0.0000000000000000e+00 6.0614247897481185e+01 -9.1298511920521341e-01 0.0000000000000000e+00 0.0000000000000000e+00 0.0000000000000000e+00 0.0000000000000000e+00  1.0505281003072581e+01 1.2572884343283114e+01 0.0000000000000000e+00 1.2572884343283114e+01 5.5789329719110341e+01 0.0000000000000000e+00 0.0000000000000000e+00 0.0000000000000000e+00 0.0000000000000000e+00  -6.1154432306509982e+01 3.6962592278601100e+01 0.0000000000000000e+00 3.6962592278601100e+01 1.0278048280378995e+02 0.0000000000000000e+00 0.0000000000000000e+00 0.0000000000000000e+00 0.0000000000000000e+00  -4.8318592147668312e+01 6.9714936568597238e+01 0.0000000000000000e+00 6.9714936568597238e+01 9.6826331846788335e+01 0.0000000000000000e+00 0.0000000000000000e+00 0.0000000000000000e+00 0.0000000000000000e+00  3.4920261730798934e+01 9.5760041200888129e+00 0.0000000000000000e+00 9.5760041200888129e+00 3.2501050568572310e+01 0.0000000000000000e+00 0.0000000000000000e+00 0.0000000000000000e+00 0.0000000000000000e+00  2.5120431327931271e+01 -6.4713439745698598e-02 0.0000000000000000e+00 -6.4713439745698598e-02 2.0842727202664033e+01 0.0000000000000000e+00 0.0000000000000000e+00 0.0000000000000000e+00 0.0000000000000000e+00  4.3898718134954677e+01 1.4481399160557460e+01 0.0000000000000000e+00 1.4481399160557460e+01 1.2452233267755256e+01 0.0000000000000000e+00 0.0000000000000000e+00 0.0000000000000000e+00 0.0000000000000000e+00  2.8307220803342457e+01 1.5862656809508149e+01 0.0000000000000000e+00 1.5862656809508149e+01 2.0021904610091724e+01 0.0000000000000000e+00 0.0000000000000000e+00 0.0000000000000000e+00 0.0000000000000000e+00  -2.7106672190422170e+01 2.0885701535474190e+01 0.0000000000000000e+00 2.0885701535474190e+01 8.4370935257371073e+01 0.0000000000000000e+00 0.0000000000000000e+00 0.0000000000000000e+00 0.0000000000000000e+00  -1.8649344445386031e+01 5.1629438377178765e+01 0.0000000000000000e+00 5.1629438377178765e+01 7.0505581210242426e+01 0.0000000000000000e+00 0.0000000000000000e+00 0.0000000000000000e+00 0.0000000000000000e+00  2.8654386343190801e+00 -6.2794030103727421e+00 0.0000000000000000e+00 -6.2794030103727421e+00 5.6205077301192702e+01 0.0000000000000000e+00 0.0000000000000000e+00 0.0000000000000000e+00 0.0000000000000000e+00  -3.7561360687805674e+01 -4.5309390865113294e+01 0.0000000000000000e+00 -4.5309390865113294e+01 9.1600872972459157e+01 0.0000000000000000e+00 0.0000000000000000e+00 0.0000000000000000e+00 0.0000000000000000e+00  8.2873225979127962e+00 -1.5531680070305089e+01 0.0000000000000000e+00 -1.5531680070305089e+01 3.5080996791963152e+01 0.0000000000000000e+00 0.0000000000000000e+00 0.0000000000000000e+00 0.0000000000000000e+00  4.0013983835942177e+01 -1.9116940185209263e+01 0.0000000000000000e+00 -1.9116940185209263e+01 6.6107761181809117e+00 0.0000000000000000e+00 0.0000000000000000e+00 0.0000000000000000e+00 0.0000000000000000e+00  2.7523428921029101e+01 2.6709991191868787e+00 0.0000000000000000e+00 2.6709991191868787e+00 2.1776503524873362e+01 0.0000000000000000e+00 0.0000000000000000e+00 0.0000000000000000e+00 0.0000000000000000e+00  -2.2130145329480992e+00 -1.1347693950793895e+01 0.0000000000000000e+00 -1.1347693950793895e+01 6.0768186965645725e+01 0.0000000000000000e+00 0.0000000000000000e+00 0.0000000000000000e+00 0.0000000000000000e+00  -2.3265335979591047e+01 -5.9929679838194495e+01 0.0000000000000000e+00 -5.9929679838194495e+01 7.4463487454277981e+01 0.0000000000000000e+00 0.0000000000000000e+00 0.0000000000000000e+00 0.0000000000000000e+00  -7.0998299382645456e+01 -3.1832572564745465e+01 0.0000000000000000e+00 -3.1832572564745465e+01 1.0575227450471745e+02 0.0000000000000000e+00 0.0000000000000000e+00 0.0000000000000000e+00 0.0000000000000000e+00  -3.0527053605843758e+01 -2.0151258406641659e+01 0.0000000000000000e+00 -2.0151258406641659e+01 7.5901213149585800e+01 0.0000000000000000e+00 0.0000000000000000e+00 0.0000000000000000e+00 0.0000000000000000e+00  3.1037050732787556e+01 -4.0596378261056962e+01 0.0000000000000000e+00 -4.0596378261056962e+01 1.6411965430307230e+01 0.0000000000000000e+00 0.0000000000000000e+00 0.0000000000000000e+00 0.0000000000000000e+00  3.0112283833646561e+01 -4.1047982736719661e+01 0.0000000000000000e+00 -4.1047982736719661e+01 8.5989969863578111e+00 0.0000000000000000e+00 0.0000000000000000e+00 0.0000000000000000e+00 0.0000000000000000e+00  4.6902368110496141e+01 6.7346576068749000e+00 0.0000000000000000e+00 6.7346576068749000e+00 -3.3748544758879002e+00 0.0000000000000000e+00 0.0000000000000000e+00 0.0000000000000000e+00 0.0000000000000000e+00  8.3650896273939580e+01 1.8513576639102347e+01 0.0000000000000000e+00 1.8513576639102347e+01 -4.5335223024628796e+01 0.0000000000000000e+00 0.0000000000000000e+00 0.0000000000000000e+00 0.0000000000000000e+00  7.3145640092705136e+01 -2.0745838574304440e+00 0.0000000000000000e+00 -2.0745838574304440e+00 -2.2030665947407545e+01 0.0000000000000000e+00 0.0000000000000000e+00 0.0000000000000000e+00 0.0000000000000000e+00  3.5253609604456102e+01 -1.1400931456025445e+01 0.0000000000000000e+00 -1.1400931456025445e+01 1.5003020168343971e+01 0.0000000000000000e+00 0.0000000000000000e+00 0.0000000000000000e+00 0.0000000000000000e+00  2.5076890661125066e+01 -4.0986959121388900e-01 0.0000000000000000e+00 -4.0986959121388900e-01 1.9380781407455839e+01 0.0000000000000000e+00 0.0000000000000000e+00 0.0000000000000000e+00 0.0000000000000000e+00  2.8783966773135230e+01 -3.6778508640464342e+00 0.0000000000000000e+00 -3.6778508640464342e+00 2.0513128592113773e+01 0.0000000000000000e+00 0.0000000000000000e+00 0.0000000000000000e+00 0.0000000000000000e+00  -2.8858584379516248e+01 -2.9284788025217178e+01 0.0000000000000000e+00 -2.9284788025217178e+01 6.3498723225998418e+01 0.0000000000000000e+00 0.0000000000000000e+00 0.0000000000000000e+00 0.0000000000000000e+00  -3.8556042124266348e+01 -4.3662391390933699e+01 0.0000000000000000e+00 -4.3662391390933699e+01 7.6558695984282039e+01 0.0000000000000000e+00 0.0000000000000000e+00 0.0000000000000000e+00 0.0000000000000000e+00  -3.7965673510031777e+01 -2.1924582492870314e+01 0.0000000000000000e+00 -2.1924582492870314e+01 7.6979373429710407e+01 0.0000000000000000e+00 0.0000000000000000e+00 0.0000000000000000e+00 0.0000000000000000e+00  1.8557651738962871e+01 -2.9885464303545692e+01 0.0000000000000000e+00 -2.9885464303545692e+01 2.1820405185770682e+01 0.0000000000000000e+00 0.0000000000000000e+00 0.0000000000000000e+00 0.0000000000000000e+00  2.8483476208627017e+01 -5.4402776203923182e+01 0.0000000000000000e+00 -5.4402776203923182e+01 -6.7472412301253932e+00 0.0000000000000000e+00 0.0000000000000000e+00 0.0000000000000000e+00 0.0000000000000000e+00  4.9115844071339374e+01 -1.0598174091253165e+00 0.0000000000000000e+00 -1.0598174091253165e+00 -1.2225423516844971e+01 0.0000000000000000e+00 0.0000000000000000e+00 0.0000000000000000e+00 0.0000000000000000e+00  9.6151771925654344e+01 3.1572972617984199e+01 0.0000000000000000e+00 3.1572972617984199e+01 -4.9690723957495038e+01 0.0000000000000000e+00 0.0000000000000000e+00 0.0000000000000000e+00 0.0000000000000000e+00  9.5174909662688265e+01 -9.7522896561886689e+00 0.0000000000000000e+00 -9.7522896561886689e+00 -4.8152394003798847e+01 0.0000000000000000e+00 0.0000000000000000e+00 0.0000000000000000e+00 0.0000000000000000e+00  4.1116338187319009e+01 -2.4507989574466791e+01 0.0000000000000000e+00 -2.4507989574466794e+01 -3.9470132162866857e-02 0.0000000000000000e+00 0.0000000000000000e+00 0.0000000000000000e+00 0.0000000000000000e+00  3.0048214857116253e+01 -4.5499618837063096e+00 0.0000000000000000e+00 -4.5499618837063096e+00 7.2375529377573056e+00 0.0000000000000000e+00 0.0000000000000000e+00 0.0000000000000000e+00 0.0000000000000000e+00  1.7189978619447430e+01 -3.2644062779648415e+00 0.0000000000000000e+00 -3.2644062779648420e+00 4.0320053011392986e+01 0.0000000000000000e+00 0.0000000000000000e+00 0.0000000000000000e+00 0.0000000000000000e+00  5.9566676198626756e-01 -1.0196539744038633e+01 0.0000000000000000e+00 -1.0196539744038636e+01 4.1658574314338345e+01 0.0000000000000000e+00 0.0000000000000000e+00 0.0000000000000000e+00 0.0000000000000000e+00  -4.6801630659400075e+00 -1.4477901769859521e+01 0.0000000000000000e+00 -1.4477901769859521e+01 4.6501353873001186e+01 0.0000000000000000e+00 0.0000000000000000e+00 0.0000000000000000e+00 0.0000000000000000e+00  3.4058777273493718e+01 -5.0402258985980978e+01 0.0000000000000000e+00 -5.0402258985980978e+01 1.0630861976304498e+01 0.0000000000000000e+00 0.0000000000000000e+00 0.0000000000000000e+00 0.0000000000000000e+00  2.0880987671908986e+01 -6.5360604505542241e+01 0.0000000000000000e+00 -6.5360604505542241e+01 -8.2937274557470342e-01 0.0000000000000000e+00 0.0000000000000000e+00 0.0000000000000000e+00 0.0000000000000000e+00  6.2116546811891588e+01 3.0691797275064108e+00 0.0000000000000000e+00 3.0691797275064108e+00 -2.6174019023825949e+01 0.0000000000000000e+00 0.0000000000000000e+00 0.0000000000000000e+00 0.0000000000000000e+00  9.5593374600223072e+01 8.7690995307983055e+00 0.0000000000000000e+00 8.7690995307983055e+00 -5.8426280320315584e+01 0.0000000000000000e+00 0.0000000000000000e+00 0.0000000000000000e+00 0.0000000000000000e+00  7.1512473377147558e+01 -3.7734194942168124e+01 0.0000000000000000e+00 -3.7734194942168124e+01 -3.4104853752487116e+01 0.0000000000000000e+00 0.0000000000000000e+00 0.0000000000000000e+00 0.0000000000000000e+00  1.1085318886372077e+01 -9.4717523828386234e+00 0.0000000000000000e+00 -9.4717523828386234e+00 2.0902299943787334e+01 0.0000000000000000e+00 0.0000000000000000e+00 0.0000000000000000e+00 0.0000000000000000e+00  2.7630458938835282e+01 -4.5938171798166616e+00 0.0000000000000000e+00 -4.5938171798166616e+00 9.2332230774149764e+00 0.0000000000000000e+00 0.0000000000000000e+00 0.0000000000000000e+00 0.0000000000000000e+00  3.6113642479697724e+01 2.0717630966373111e+01 0.0000000000000000e+00 2.0717630966373111e+01 3.8584055560728758e-01 0.0000000000000000e+00 0.0000000000000000e+00 0.0000000000000000e+00 0.0000000000000000e+00  6.0615944735846334e+01 1.7921619332512183e+01 0.0000000000000000e+00 1.7921619332512183e+01 -2.8945951278693432e+01 0.0000000000000000e+00 0.0000000000000000e+00 0.0000000000000000e+00 0.0000000000000000e+00  8.8745218671387846e+01 -1.1570306058530633e+01 0.0000000000000000e+00 -1.1570306058530633e+01 -6.2585239635054457e+01 0.0000000000000000e+00 0.0000000000000000e+00 0.0000000000000000e+00 0.0000000000000000e+00  8.6348525861277579e+01 -2.7890597390460126e+01 0.0000000000000000e+00 -2.7890597390460126e+01 -4.7987929212722477e+01 0.0000000000000000e+00 0.0000000000000000e+00 0.0000000000000000e+00 0.0000000000000000e+00  2.5140098297762357e+01 2.6660048137038373e+01 0.0000000000000000e+00 2.6660048137038373e+01 2.1889194742779572e+00 0.0000000000000000e+00 0.0000000000000000e+00 0.0000000000000000e+00 0.0000000000000000e+00  1.6185255766622163e+01 2.9105578772768688e+01 0.0000000000000000e+00 2.9105578772768688e+01 1.3882162680775924e+01 0.0000000000000000e+00 0.0000000000000000e+00 0.0000000000000000e+00 0.0000000000000000e+00  -2.1975505361822986e+01 3.9251451647916963e-01 0.0000000000000000e+00 3.9251451647916963e-01 5.3101193875247525e+01 0.0000000000000000e+00 0.0000000000000000e+00 0.0000000000000000e+00 0.0000000000000000e+00  -6.3550008105058957e+01 2.3531197250847573e+01 0.0000000000000000e+00 2.3531197250847573e+01 8.7897602277410257e+01 0.0000000000000000e+00 0.0000000000000000e+00 0.0000000000000000e+00 0.0000000000000000e+00  -1.9109953109036532e+01 1.9876220236459535e+01 0.0000000000000000e+00 1.9876220236459535e+01 4.5148482707139280e+01 0.0000000000000000e+00 0.0000000000000000e+00 0.0000000000000000e+00 0.0000000000000000e+00  1.2371423348083134e+01 -1.3631900053991020e+00 0.0000000000000000e+00 -1.3631900053991020e+00 2.6591523883276409e+01 0.0000000000000000e+00 0.0000000000000000e+00 0.0000000000000000e+00 0.0000000000000000e+00  1.6990106599263804e+01 3.3864525665218220e-01 0.0000000000000000e+00 3.3864525665218220e-01 1.7495524189428053e+01 0.0000000000000000e+00 0.0000000000000000e+00 0.0000000000000000e+00 0.0000000000000000e+00  2.5884249170376386e+01 9.6412935084570179e+00 0.0000000000000000e+00 9.6412935084570179e+00 1.4666562222761597e+00 0.0000000000000000e+00 0.0000000000000000e+00 0.0000000000000000e+00 0.0000000000000000e+00  7.8837434857379066e+01 5.6134077418600237e+00 0.0000000000000000e+00 5.6134077418600237e+00 -4.8684978303779666e+01 0.0000000000000000e+00 0.0000000000000000e+00 0.0000000000000000e+00 0.0000000000000000e+00  9.5696197150734349e+01 -4.2059146188664947e+01 0.0000000000000000e+00 -4.2059146188664947e+01 -8.9287361051678673e+01 0.0000000000000000e+00 0.0000000000000000e+00 0.0000000000000000e+00 0.0000000000000000e+00  4.3211678256105522e+01 -3.5453681980251723e+01 0.0000000000000000e+00 -3.5453681980251723e+01 -3.2768874036414843e+01 0.0000000000000000e+00 0.0000000000000000e+00 0.0000000000000000e+00 0.0000000000000000e+00  6.1632488915879389e+00 -1.1646960824989957e+01 0.0000000000000000e+00 -1.1646960824989957e+01 1.2003227312977010e+01 0.0000000000000000e+00 0.0000000000000000e+00 0.0000000000000000e+00 0.0000000000000000e+00  -4.3134181262961675e+01 -2.6660109589030135e+01 0.0000000000000000e+00 -2.6660109589030135e+01 8.0683296225821536e+01 0.0000000000000000e+00 0.0000000000000000e+00 0.0000000000000000e+00 0.0000000000000000e+00  -1.1027921706348259e+02 1.6052265500745239e+01 0.0000000000000000e+00 1.6052265500745239e+01 1.3606622730552928e+02 0.0000000000000000e+00 0.0000000000000000e+00 0.0000000000000000e+00 0.0000000000000000e+00  -7.0057474540438278e+01 1.0039646783513624e+02 0.0000000000000000e+00 1.0039646783513624e+02 8.7799497355776026e+01 0.0000000000000000e+00 0.0000000000000000e+00 0.0000000000000000e+00 0.0000000000000000e+00  -8.3864723144261024e+00 -1.4499942856633062e+01 0.0000000000000000e+00 -1.4499942856633062e+01 2.6687715439911170e+01 0.0000000000000000e+00 0.0000000000000000e+00 0.0000000000000000e+00 0.0000000000000000e+00  -8.6382487501265842e+01 7.7876337693976069e+01 0.0000000000000000e+00 7.7876337693976069e+01 -4.0854881225320305e+01 0.0000000000000000e+00 0.0000000000000000e+00 0.0000000000000000e+00 0.0000000000000000e+00  2.6106306042317027e+02 1.5871184708129772e+02 0.0000000000000000e+00 1.5871184708129772e+02 5.3262385160635944e+01 0.0000000000000000e+00 0.0000000000000000e+00 0.0000000000000000e+00 0.0000000000000000e+00  1.0894175635044329e+01 7.6792481295401345e+01 0.0000000000000000e+00 7.6792481295401345e+01 7.8360609396030192e+00 0.0000000000000000e+00 0.0000000000000000e+00 0.0000000000000000e+00 0.0000000000000000e+00  -7.6709321306092304e-01 -1.7006706057007852e+02 0.0000000000000000e+00 -1.7006706057007852e+02 -1.0876445842933276e+00 0.0000000000000000e+00 0.0000000000000000e+00 0.0000000000000000e+00 0.0000000000000000e+00  2.7453700439944067e+00 1.0952027180010370e+01 0.0000000000000000e+00 1.0952027180010370e+01 -2.9873089697345314e+01 0.0000000000000000e+00 0.0000000000000000e+00 0.0000000000000000e+00 0.0000000000000000e+00  1.6909016318515821e+01 7.8252037444824978e+01 0.0000000000000000e+00 7.8252037444824978e+01 2.1828488127325521e+01 0.0000000000000000e+00 0.0000000000000000e+00 0.0000000000000000e+00 0.0000000000000000e+00  2.9391859393261090e+01 6.6237755692989339e+01 0.0000000000000000e+00 6.6237755692989339e+01 1.5239268587049672e+01 0.0000000000000000e+00 0.0000000000000000e+00 0.0000000000000000e+00 0.0000000000000000e+00  1.9635612629480296e+01 3.8583629793814374e+01 0.0000000000000000e+00 3.8583629793814374e+01 3.3998458984351409e+01 0.0000000000000000e+00 0.0000000000000000e+00 0.0000000000000000e+00 0.0000000000000000e+00  -2.4744187565862362e+01 1.1207445448272297e+00 0.0000000000000000e+00 1.1207445448272297e+00 -1.5384602233634848e+00 0.0000000000000000e+00 0.0000000000000000e+00 0.0000000000000000e+00 0.0000000000000000e+00  -6.7965093437376964e+00 -6.1129725525035346e+00 0.0000000000000000e+00 -6.1129725525035346e+00 -8.8548345197003471e+00 0.0000000000000000e+00 0.0000000000000000e+00 0.0000000000000000e+00 0.0000000000000000e+00  3.2748573884037739e+00 1.6477250215350416e+01 0.0000000000000000e+00 1.6477250215350416e+01 3.3618587094977337e+00 0.0000000000000000e+00 0.0000000000000000e+00 0.0000000000000000e+00 0.0000000000000000e+00  1.8681744716752491e+00 1.4229627488256282e+01 0.0000000000000000e+00 1.4229627488256282e+01 1.8315656370806612e+00 0.0000000000000000e+00 0.0000000000000000e+00 0.0000000000000000e+00 0.0000000000000000e+00  3.0072020684055105e+00 1.3801988098120473e+01 0.0000000000000000e+00 1.3801988098120473e+01 3.2116058069926106e+00 0.0000000000000000e+00 0.0000000000000000e+00 0.0000000000000000e+00 0.0000000000000000e+00  -2.0904767378677969e+00 -8.3241450137886408e-01 0.0000000000000000e+00 -8.3241450137886386e-01 -3.8935851816418570e+00 0.0000000000000000e+00 0.0000000000000000e+00 0.0000000000000000e+00 0.0000000000000000e+00  3.5131449462886648e+00 -1.5801116309833441e+01 0.0000000000000000e+00 -1.5801116309833441e+01 5.1806253323988596e+00 0.0000000000000000e+00 0.0000000000000000e+00 0.0000000000000000e+00 0.0000000000000000e+00  -1.5742811815052447e+00 -1.3371728290889234e+01 0.0000000000000000e+00 -1.3371728290889234e+01 -1.7986553073248310e+00 0.0000000000000000e+00 0.0000000000000000e+00 0.0000000000000000e+00 0.0000000000000000e+00  1.2355090290046201e+01 6.3925906271894171e+00 0.0000000000000000e+00 6.3925906271894171e+00 1.2385715827100169e+01 0.0000000000000000e+00 0.0000000000000000e+00 0.0000000000000000e+00 0.0000000000000000e+00  8.4355228915387546e+00 -5.6813088029827230e-01 0.0000000000000000e+00 -5.6813088029827230e-01 8.6738578158263735e+00 0.0000000000000000e+00 0.0000000000000000e+00 0.0000000000000000e+00 0.0000000000000000e+00  -2.2935383177696728e+01 -6.4875754602900798e+01 0.0000000000000000e+00 -6.4875754602900798e+01 -1.5717182170770270e+01 0.0000000000000000e+00 0.0000000000000000e+00 0.0000000000000000e+00 0.0000000000000000e+00  1.2789499444035910e+01 -1.7056222088621393e+01 0.0000000000000000e+00 -1.7056222088621393e+01 1.2720007079113097e+01 0.0000000000000000e+00 0.0000000000000000e+00 0.0000000000000000